MODEL 1
REMARK VINA RESULT:      -6.4      0.000      0.000
REMARK  7 active torsions:
REMARK  status: ('A' for Active; 'I' for Inactive)
REMARK    1  A    between atoms: O_1  and  C_12 
REMARK    2  A    between atoms: O_3  and  C_15 
REMARK    3  A    between atoms: C_5  and  C_6 
REMARK    4  A    between atoms: C_5  and  C_7 
REMARK    5  A    between atoms: C_6  and  C_8 
REMARK    6  A    between atoms: C_7  and  C_9 
REMARK    7  A    between atoms: C_9  and  C_14 
ROOT
HETATM    1  O   UNL     1      31.805  76.305  23.601  1.00  0.00    -0.358 OA
HETATM    2  H   UNL     1      31.519  75.461  23.892  1.00  0.00     0.217 HD
ENDROOT
BRANCH   1   3
HETATM    3  C   UNL     1      31.577  76.695  22.315  1.00  0.00     0.099 A 
HETATM    4  C   UNL     1      31.900  75.831  21.269  1.00  0.00     0.046 A 
HETATM    5  C   UNL     1      31.674  76.220  19.948  1.00  0.00    -0.055 A 
HETATM    6  C   UNL     1      31.125  77.473  19.674  1.00  0.00     0.010 A 
HETATM    7  C   UNL     1      30.800  78.336  20.721  1.00  0.00     0.040 A 
HETATM    8  C   UNL     1      31.027  77.947  22.041  1.00  0.00     0.098 A 
BRANCH   5   9
HETATM    9  C   UNL     1      32.025  75.286  18.817  1.00  0.00     0.038 C 
BRANCH   9  10
HETATM   10  C   UNL     1      31.150  75.462  17.572  1.00  0.00     0.005 C 
BRANCH  10  11
HETATM   11  C   UNL     1      31.940  75.942  16.347  1.00  0.00     0.011 C 
BRANCH  11  12
HETATM   12  C   UNL     1      31.245  77.093  15.619  1.00  0.00     0.113 C 
BRANCH  12  13
HETATM   13  C   UNL     1      31.447  78.434  16.289  1.00  0.00     0.172 C 
HETATM   14  O   UNL     1      30.267  79.082  16.469  1.00  0.00    -0.648 OA
HETATM   15  O   UNL     1      32.522  78.892  16.652  1.00  0.00    -0.648 OA
ENDBRANCH  12  13
ENDBRANCH  11  12
ENDBRANCH  10  11
ENDBRANCH   9  10
ENDBRANCH   5   9
BRANCH   8  16
HETATM   16  O   UNL     1      30.707  78.799  23.055  1.00  0.00    -0.358 OA
HETATM   17  H   UNL     1      31.337  78.991  23.722  1.00  0.00     0.217 HD
ENDBRANCH   8  16
ENDBRANCH   1   3
TORSDOF 7
ENDMDL
MODEL 2
REMARK VINA RESULT:      -6.4      3.003      4.849
REMARK  7 active torsions:
REMARK  status: ('A' for Active; 'I' for Inactive)
REMARK    1  A    between atoms: O_1  and  C_12 
REMARK    2  A    between atoms: O_3  and  C_15 
REMARK    3  A    between atoms: C_5  and  C_6 
REMARK    4  A    between atoms: C_5  and  C_7 
REMARK    5  A    between atoms: C_6  and  C_8 
REMARK    6  A    between atoms: C_7  and  C_9 
REMARK    7  A    between atoms: C_9  and  C_14 
ROOT
HETATM    1  O   UNL     1      31.015  72.552  23.424  1.00  0.00    -0.358 OA
HETATM    2  H   UNL     1      30.607  73.129  24.040  1.00  0.00     0.217 HD
ENDROOT
BRANCH   1   3
HETATM    3  C   UNL     1      31.854  73.054  22.474  1.00  0.00     0.099 A 
HETATM    4  C   UNL     1      31.324  73.779  21.407  1.00  0.00     0.046 A 
HETATM    5  C   UNL     1      32.172  74.296  20.426  1.00  0.00    -0.055 A 
HETATM    6  C   UNL     1      33.549  74.086  20.513  1.00  0.00     0.010 A 
HETATM    7  C   UNL     1      34.077  73.361  21.582  1.00  0.00     0.040 A 
HETATM    8  C   UNL     1      33.229  72.845  22.562  1.00  0.00     0.098 A 
BRANCH   5   9
HETATM    9  C   UNL     1      31.600  75.079  19.271  1.00  0.00     0.038 C 
BRANCH   9  10
HETATM   10  C   UNL     1      32.084  76.531  19.205  1.00  0.00     0.005 C 
BRANCH  10  11
HETATM   11  C   UNL     1      31.127  77.514  19.893  1.00  0.00     0.011 C 
BRANCH  11  12
HETATM   12  C   UNL     1      31.789  78.254  21.057  1.00  0.00     0.113 C 
BRANCH  12  13
HETATM   13  C   UNL     1      31.760  77.476  22.354  1.00  0.00     0.172 C 
HETATM   14  O   UNL     1      30.526  77.504  22.922  1.00  0.00    -0.648 OA
HETATM   15  O   UNL     1      32.706  76.873  22.842  1.00  0.00    -0.648 OA
ENDBRANCH  12  13
ENDBRANCH  11  12
ENDBRANCH  10  11
ENDBRANCH   9  10
ENDBRANCH   5   9
BRANCH   8  16
HETATM   16  O   UNL     1      33.757  72.138  23.600  1.00  0.00    -0.358 OA
HETATM   17  H   UNL     1      33.850  71.208  23.534  1.00  0.00     0.217 HD
ENDBRANCH   8  16
ENDBRANCH   1   3
TORSDOF 7
ENDMDL
MODEL 3
REMARK VINA RESULT:      -6.3      2.205      3.089
REMARK  7 active torsions:
REMARK  status: ('A' for Active; 'I' for Inactive)
REMARK    1  A    between atoms: O_1  and  C_12 
REMARK    2  A    between atoms: O_3  and  C_15 
REMARK    3  A    between atoms: C_5  and  C_6 
REMARK    4  A    between atoms: C_5  and  C_7 
REMARK    5  A    between atoms: C_6  and  C_8 
REMARK    6  A    between atoms: C_7  and  C_9 
REMARK    7  A    between atoms: C_9  and  C_14 
ROOT
HETATM    1  O   UNL     1      29.208  80.076  22.228  1.00  0.00    -0.358 OA
HETATM    2  H   UNL     1      28.881  80.335  21.388  1.00  0.00     0.217 HD
ENDROOT
BRANCH   1   3
HETATM    3  C   UNL     1      30.353  79.342  22.316  1.00  0.00     0.099 A 
HETATM    4  C   UNL     1      30.280  77.950  22.266  1.00  0.00     0.046 A 
HETATM    5  C   UNL     1      31.445  77.187  22.358  1.00  0.00    -0.055 A 
HETATM    6  C   UNL     1      32.682  77.816  22.501  1.00  0.00     0.010 A 
HETATM    7  C   UNL     1      32.754  79.209  22.550  1.00  0.00     0.040 A 
HETATM    8  C   UNL     1      31.589  79.971  22.459  1.00  0.00     0.098 A 
BRANCH   5   9
HETATM    9  C   UNL     1      31.366  75.682  22.305  1.00  0.00     0.038 C 
BRANCH   9  10
HETATM   10  C   UNL     1      32.019  75.069  21.061  1.00  0.00     0.005 C 
BRANCH  10  11
HETATM   11  C   UNL     1      31.488  75.665  19.750  1.00  0.00     0.011 C 
BRANCH  11  12
HETATM   12  C   UNL     1      32.553  76.465  19.000  1.00  0.00     0.113 C 
BRANCH  12  13
HETATM   13  C   UNL     1      32.065  77.817  18.530  1.00  0.00     0.172 C 
HETATM   14  O   UNL     1      30.809  78.076  18.979  1.00  0.00    -0.648 OA
HETATM   15  O   UNL     1      32.705  78.606  17.848  1.00  0.00    -0.648 OA
ENDBRANCH  12  13
ENDBRANCH  11  12
ENDBRANCH  10  11
ENDBRANCH   9  10
ENDBRANCH   5   9
BRANCH   8  16
HETATM   16  O   UNL     1      31.672  81.330  22.509  1.00  0.00    -0.358 OA
HETATM   17  H   UNL     1      30.893  81.844  22.588  1.00  0.00     0.217 HD
ENDBRANCH   8  16
ENDBRANCH   1   3
TORSDOF 7
ENDMDL
MODEL 4
REMARK VINA RESULT:      -6.3      1.034      2.088
REMARK  7 active torsions:
REMARK  status: ('A' for Active; 'I' for Inactive)
REMARK    1  A    between atoms: O_1  and  C_12 
REMARK    2  A    between atoms: O_3  and  C_15 
REMARK    3  A    between atoms: C_5  and  C_6 
REMARK    4  A    between atoms: C_5  and  C_7 
REMARK    5  A    between atoms: C_6  and  C_8 
REMARK    6  A    between atoms: C_7  and  C_9 
REMARK    7  A    between atoms: C_9  and  C_14 
ROOT
HETATM    1  O   UNL     1      30.544  78.325  22.944  1.00  0.00    -0.358 OA
HETATM    2  H   UNL     1      30.810  79.224  22.925  1.00  0.00     0.217 HD
ENDROOT
BRANCH   1   3
HETATM    3  C   UNL     1      31.175  77.411  22.154  1.00  0.00     0.099 A 
HETATM    4  C   UNL     1      31.367  77.690  20.801  1.00  0.00     0.046 A 
HETATM    5  C   UNL     1      32.010  76.762  19.982  1.00  0.00    -0.055 A 
HETATM    6  C   UNL     1      32.459  75.554  20.516  1.00  0.00     0.010 A 
HETATM    7  C   UNL     1      32.268  75.276  21.870  1.00  0.00     0.040 A 
HETATM    8  C   UNL     1      31.625  76.204  22.688  1.00  0.00     0.098 A 
BRANCH   5   9
HETATM    9  C   UNL     1      32.216  77.063  18.519  1.00  0.00     0.038 C 
BRANCH   9  10
HETATM   10  C   UNL     1      31.533  76.065  17.577  1.00  0.00     0.005 C 
BRANCH  10  11
HETATM   11  C   UNL     1      31.854  76.322  16.098  1.00  0.00     0.011 C 
BRANCH  11  12
HETATM   12  C   UNL     1      31.548  77.759  15.676  1.00  0.00     0.113 C 
BRANCH  12  13
HETATM   13  C   UNL     1      30.097  78.142  15.863  1.00  0.00     0.172 C 
HETATM   14  O   UNL     1      29.965  79.181  16.728  1.00  0.00    -0.648 OA
HETATM   15  O   UNL     1      29.145  77.614  15.304  1.00  0.00    -0.648 OA
ENDBRANCH  12  13
ENDBRANCH  11  12
ENDBRANCH  10  11
ENDBRANCH   9  10
ENDBRANCH   5   9
BRANCH   8  16
HETATM   16  O   UNL     1      31.443  75.921  24.008  1.00  0.00    -0.358 OA
HETATM   17  H   UNL     1      30.853  75.238  24.264  1.00  0.00     0.217 HD
ENDBRANCH   8  16
ENDBRANCH   1   3
TORSDOF 7
ENDMDL
MODEL 5
REMARK VINA RESULT:      -6.2      2.941      4.688
REMARK  7 active torsions:
REMARK  status: ('A' for Active; 'I' for Inactive)
REMARK    1  A    between atoms: O_1  and  C_12 
REMARK    2  A    between atoms: O_3  and  C_15 
REMARK    3  A    between atoms: C_5  and  C_6 
REMARK    4  A    between atoms: C_5  and  C_7 
REMARK    5  A    between atoms: C_6  and  C_8 
REMARK    6  A    between atoms: C_7  and  C_9 
REMARK    7  A    between atoms: C_9  and  C_14 
ROOT
HETATM    1  O   UNL     1      34.118  73.244  23.283  1.00  0.00    -0.358 OA
HETATM    2  H   UNL     1      33.906  72.879  24.119  1.00  0.00     0.217 HD
ENDROOT
BRANCH   1   3
HETATM    3  C   UNL     1      33.135  73.462  22.365  1.00  0.00     0.099 A 
HETATM    4  C   UNL     1      33.340  74.397  21.350  1.00  0.00     0.046 A 
HETATM    5  C   UNL     1      32.341  74.631  20.405  1.00  0.00    -0.055 A 
HETATM    6  C   UNL     1      31.135  73.931  20.476  1.00  0.00     0.010 A 
HETATM    7  C   UNL     1      30.931  72.996  21.492  1.00  0.00     0.040 A 
HETATM    8  C   UNL     1      31.931  72.763  22.436  1.00  0.00     0.098 A 
BRANCH   5   9
HETATM    9  C   UNL     1      32.562  75.642  19.308  1.00  0.00     0.038 C 
BRANCH   9  10
HETATM   10  C   UNL     1      31.415  76.646  19.148  1.00  0.00     0.005 C 
BRANCH  10  11
HETATM   11  C   UNL     1      31.678  77.975  19.869  1.00  0.00     0.011 C 
BRANCH  11  12
HETATM   12  C   UNL     1      31.158  77.971  21.306  1.00  0.00     0.113 C 
BRANCH  12  13
HETATM   13  C   UNL     1      32.236  78.232  22.334  1.00  0.00     0.172 C 
HETATM   14  O   UNL     1      32.348  79.557  22.611  1.00  0.00    -0.648 OA
HETATM   15  O   UNL     1      32.922  77.377  22.877  1.00  0.00    -0.648 OA
ENDBRANCH  12  13
ENDBRANCH  11  12
ENDBRANCH  10  11
ENDBRANCH   9  10
ENDBRANCH   5   9
BRANCH   8  16
HETATM   16  O   UNL     1      31.719  71.848  23.423  1.00  0.00    -0.358 OA
HETATM   17  H   UNL     1      31.121  71.141  23.286  1.00  0.00     0.217 HD
ENDBRANCH   8  16
ENDBRANCH   1   3
TORSDOF 7
ENDMDL
MODEL 6
REMARK VINA RESULT:      -6.2      3.424      5.450
REMARK  7 active torsions:
REMARK  status: ('A' for Active; 'I' for Inactive)
REMARK    1  A    between atoms: O_1  and  C_12 
REMARK    2  A    between atoms: O_3  and  C_15 
REMARK    3  A    between atoms: C_5  and  C_6 
REMARK    4  A    between atoms: C_5  and  C_7 
REMARK    5  A    between atoms: C_6  and  C_8 
REMARK    6  A    between atoms: C_7  and  C_9 
REMARK    7  A    between atoms: C_9  and  C_14 
ROOT
HETATM    1  O   UNL     1      33.873  72.864  23.429  1.00  0.00    -0.358 OA
HETATM    2  H   UNL     1      33.717  73.498  24.102  1.00  0.00     0.217 HD
ENDROOT
BRANCH   1   3
HETATM    3  C   UNL     1      33.714  73.208  22.119  1.00  0.00     0.099 A 
HETATM    4  C   UNL     1      32.932  74.316  21.792  1.00  0.00     0.046 A 
HETATM    5  C   UNL     1      32.760  74.677  20.456  1.00  0.00    -0.055 A 
HETATM    6  C   UNL     1      33.368  73.929  19.447  1.00  0.00     0.010 A 
HETATM    7  C   UNL     1      34.150  72.822  19.775  1.00  0.00     0.040 A 
HETATM    8  C   UNL     1      34.322  72.461  21.111  1.00  0.00     0.098 A 
BRANCH   5   9
HETATM    9  C   UNL     1      31.914  75.874  20.101  1.00  0.00     0.038 C 
BRANCH   9  10
HETATM   10  C   UNL     1      31.601  76.788  21.292  1.00  0.00     0.005 C 
BRANCH  10  11
HETATM   11  C   UNL     1      31.503  78.269  20.900  1.00  0.00     0.011 C 
BRANCH  11  12
HETATM   12  C   UNL     1      30.927  79.131  22.024  1.00  0.00     0.113 C 
BRANCH  12  13
HETATM   13  C   UNL     1      31.930  80.100  22.609  1.00  0.00     0.172 C 
HETATM   14  O   UNL     1      32.968  79.446  23.192  1.00  0.00    -0.648 OA
HETATM   15  O   UNL     1      31.852  81.320  22.561  1.00  0.00    -0.648 OA
ENDBRANCH  12  13
ENDBRANCH  11  12
ENDBRANCH  10  11
ENDBRANCH   9  10
ENDBRANCH   5   9
BRANCH   8  16
HETATM   16  O   UNL     1      35.087  71.377  21.420  1.00  0.00    -0.358 OA
HETATM   17  H   UNL     1      35.595  71.370  22.208  1.00  0.00     0.217 HD
ENDBRANCH   8  16
ENDBRANCH   1   3
TORSDOF 7
ENDMDL
MODEL 7
REMARK VINA RESULT:      -6.2      3.092      4.608
REMARK  7 active torsions:
REMARK  status: ('A' for Active; 'I' for Inactive)
REMARK    1  A    between atoms: O_1  and  C_12 
REMARK    2  A    between atoms: O_3  and  C_15 
REMARK    3  A    between atoms: C_5  and  C_6 
REMARK    4  A    between atoms: C_5  and  C_7 
REMARK    5  A    between atoms: C_6  and  C_8 
REMARK    6  A    between atoms: C_7  and  C_9 
REMARK    7  A    between atoms: C_9  and  C_14 
ROOT
HETATM    1  O   UNL     1      30.034  74.671  24.076  1.00  0.00    -0.358 OA
HETATM    2  H   UNL     1      30.304  75.324  24.692  1.00  0.00     0.217 HD
ENDROOT
BRANCH   1   3
HETATM    3  C   UNL     1      30.789  74.426  22.968  1.00  0.00     0.099 A 
HETATM    4  C   UNL     1      31.113  75.480  22.113  1.00  0.00     0.046 A 
HETATM    5  C   UNL     1      31.883  75.242  20.974  1.00  0.00    -0.055 A 
HETATM    6  C   UNL     1      32.328  73.950  20.690  1.00  0.00     0.010 A 
HETATM    7  C   UNL     1      32.004  72.897  21.546  1.00  0.00     0.040 A 
HETATM    8  C   UNL     1      31.234  73.136  22.685  1.00  0.00     0.098 A 
BRANCH   5   9
HETATM    9  C   UNL     1      32.233  76.380  20.049  1.00  0.00     0.038 C 
BRANCH   9  10
HETATM   10  C   UNL     1      31.014  77.102  19.465  1.00  0.00     0.005 C 
BRANCH  10  11
HETATM   11  C   UNL     1      30.680  78.407  20.202  1.00  0.00     0.011 C 
BRANCH  11  12
HETATM   12  C   UNL     1      31.827  78.882  21.093  1.00  0.00     0.113 C 
BRANCH  12  13
HETATM   13  C   UNL     1      31.360  79.476  22.403  1.00  0.00     0.172 C 
HETATM   14  O   UNL     1      30.229  78.869  22.849  1.00  0.00    -0.648 OA
HETATM   15  O   UNL     1      31.921  80.374  23.016  1.00  0.00    -0.648 OA
ENDBRANCH  12  13
ENDBRANCH  11  12
ENDBRANCH  10  11
ENDBRANCH   9  10
ENDBRANCH   5   9
BRANCH   8  16
HETATM   16  O   UNL     1      30.923  72.099  23.513  1.00  0.00    -0.358 OA
HETATM   17  H   UNL     1      30.026  71.896  23.692  1.00  0.00     0.217 HD
ENDBRANCH   8  16
ENDBRANCH   1   3
TORSDOF 7
ENDMDL
MODEL 8
REMARK VINA RESULT:      -6.2      1.784      2.699
REMARK  7 active torsions:
REMARK  status: ('A' for Active; 'I' for Inactive)
REMARK    1  A    between atoms: O_1  and  C_12 
REMARK    2  A    between atoms: O_3  and  C_15 
REMARK    3  A    between atoms: C_5  and  C_6 
REMARK    4  A    between atoms: C_5  and  C_7 
REMARK    5  A    between atoms: C_6  and  C_8 
REMARK    6  A    between atoms: C_7  and  C_9 
REMARK    7  A    between atoms: C_9  and  C_14 
ROOT
HETATM    1  O   UNL     1      31.023  78.843  22.905  1.00  0.00    -0.358 OA
HETATM    2  H   UNL     1      30.751  79.698  22.636  1.00  0.00     0.217 HD
ENDROOT
BRANCH   1   3
HETATM    3  C   UNL     1      31.187  77.857  21.977  1.00  0.00     0.099 A 
HETATM    4  C   UNL     1      31.009  78.153  20.626  1.00  0.00     0.046 A 
HETATM    5  C   UNL     1      31.172  77.153  19.666  1.00  0.00    -0.055 A 
HETATM    6  C   UNL     1      31.511  75.858  20.059  1.00  0.00     0.010 A 
HETATM    7  C   UNL     1      31.689  75.564  21.411  1.00  0.00     0.040 A 
HETATM    8  C   UNL     1      31.526  76.564  22.370  1.00  0.00     0.098 A 
BRANCH   5   9
HETATM    9  C   UNL     1      30.979  77.472  18.205  1.00  0.00     0.038 C 
BRANCH   9  10
HETATM   10  C   UNL     1      31.295  76.302  17.267  1.00  0.00     0.005 C 
BRANCH  10  11
HETATM   11  C   UNL     1      30.241  76.114  16.167  1.00  0.00     0.011 C 
BRANCH  11  12
HETATM   12  C   UNL     1      29.646  77.442  15.697  1.00  0.00     0.113 C 
BRANCH  12  13
HETATM   13  C   UNL     1      28.745  77.300  14.491  1.00  0.00     0.172 C 
HETATM   14  O   UNL     1      29.440  77.443  13.332  1.00  0.00    -0.648 OA
HETATM   15  O   UNL     1      27.545  77.067  14.524  1.00  0.00    -0.648 OA
ENDBRANCH  12  13
ENDBRANCH  11  12
ENDBRANCH  10  11
ENDBRANCH   9  10
ENDBRANCH   5   9
BRANCH   8  16
HETATM   16  O   UNL     1      31.702  76.264  23.688  1.00  0.00    -0.358 OA
HETATM   17  H   UNL     1      32.549  76.350  24.078  1.00  0.00     0.217 HD
ENDBRANCH   8  16
ENDBRANCH   1   3
TORSDOF 7
ENDMDL
MODEL 9
REMARK VINA RESULT:      -6.2      1.796      2.994
REMARK  7 active torsions:
REMARK  status: ('A' for Active; 'I' for Inactive)
REMARK    1  A    between atoms: O_1  and  C_12 
REMARK    2  A    between atoms: O_3  and  C_15 
REMARK    3  A    between atoms: C_5  and  C_6 
REMARK    4  A    between atoms: C_5  and  C_7 
REMARK    5  A    between atoms: C_6  and  C_8 
REMARK    6  A    between atoms: C_7  and  C_9 
REMARK    7  A    between atoms: C_9  and  C_14 
ROOT
HETATM    1  O   UNL     1      29.962  74.819  24.232  1.00  0.00    -0.358 OA
HETATM    2  H   UNL     1      30.051  75.402  24.961  1.00  0.00     0.217 HD
ENDROOT
BRANCH   1   3
HETATM    3  C   UNL     1      30.762  74.969  23.139  1.00  0.00     0.099 A 
HETATM    4  C   UNL     1      30.926  76.236  22.578  1.00  0.00     0.046 A 
HETATM    5  C   UNL     1      31.740  76.402  21.458  1.00  0.00    -0.055 A 
HETATM    6  C   UNL     1      32.389  75.301  20.897  1.00  0.00     0.010 A 
HETATM    7  C   UNL     1      32.225  74.035  21.459  1.00  0.00     0.040 A 
HETATM    8  C   UNL     1      31.411  73.869  22.579  1.00  0.00     0.098 A 
BRANCH   5   9
HETATM    9  C   UNL     1      31.917  77.771  20.851  1.00  0.00     0.038 C 
BRANCH   9  10
HETATM   10  C   UNL     1      32.086  77.758  19.327  1.00  0.00     0.005 C 
BRANCH  10  11
HETATM   11  C   UNL     1      30.761  77.562  18.579  1.00  0.00     0.011 C 
BRANCH  11  12
HETATM   12  C   UNL     1      30.970  77.163  17.118  1.00  0.00     0.113 C 
BRANCH  12  13
HETATM   13  C   UNL     1      30.966  78.341  16.170  1.00  0.00     0.172 C 
HETATM   14  O   UNL     1      30.164  79.341  16.623  1.00  0.00    -0.648 OA
HETATM   15  O   UNL     1      31.608  78.420  15.132  1.00  0.00    -0.648 OA
ENDBRANCH  12  13
ENDBRANCH  11  12
ENDBRANCH  10  11
ENDBRANCH   9  10
ENDBRANCH   5   9
BRANCH   8  16
HETATM   16  O   UNL     1      31.257  72.627  23.119  1.00  0.00    -0.358 OA
HETATM   17  H   UNL     1      30.776  72.519  23.916  1.00  0.00     0.217 HD
ENDBRANCH   8  16
ENDBRANCH   1   3
TORSDOF 7
ENDMDL
