MODEL 1
REMARK VINA RESULT:      -6.2      0.000      0.000
REMARK  7 active torsions:
REMARK  status: ('A' for Active; 'I' for Inactive)
REMARK    1  A    between atoms: O_1  and  C_12 
REMARK    2  A    between atoms: O_3  and  C_15 
REMARK    3  A    between atoms: C_5  and  C_6 
REMARK    4  A    between atoms: C_5  and  C_7 
REMARK    5  A    between atoms: C_6  and  C_8 
REMARK    6  A    between atoms: C_7  and  C_9 
REMARK    7  A    between atoms: C_9  and  C_14 
ROOT
HETATM    1  O   UNL     1      31.070  72.576  23.431  1.00  0.00    -0.358 OA
HETATM    2  H   UNL     1      30.142  72.547  23.300  1.00  0.00     0.217 HD
ENDROOT
BRANCH   1   3
HETATM    3  C   UNL     1      31.878  73.108  22.471  1.00  0.00     0.099 A 
HETATM    4  C   UNL     1      31.307  73.795  21.400  1.00  0.00     0.046 A 
HETATM    5  C   UNL     1      32.123  74.343  20.409  1.00  0.00    -0.055 A 
HETATM    6  C   UNL     1      33.509  74.202  20.490  1.00  0.00     0.010 A 
HETATM    7  C   UNL     1      34.078  73.516  21.562  1.00  0.00     0.040 A 
HETATM    8  C   UNL     1      33.262  72.968  22.552  1.00  0.00     0.098 A 
BRANCH   5   9
HETATM    9  C   UNL     1      31.506  75.084  19.249  1.00  0.00     0.038 C 
BRANCH   9  10
HETATM   10  C   UNL     1      31.968  76.541  19.127  1.00  0.00     0.005 C 
BRANCH  10  11
HETATM   11  C   UNL     1      31.083  77.518  19.913  1.00  0.00     0.011 C 
BRANCH  11  12
HETATM   12  C   UNL     1      31.847  78.225  21.032  1.00  0.00     0.113 C 
BRANCH  12  13
HETATM   13  C   UNL     1      31.887  77.437  22.322  1.00  0.00     0.172 C 
HETATM   14  O   UNL     1      30.641  77.260  22.834  1.00  0.00    -0.648 OA
HETATM   15  O   UNL     1      32.894  76.986  22.849  1.00  0.00    -0.648 OA
ENDBRANCH  12  13
ENDBRANCH  11  12
ENDBRANCH  10  11
ENDBRANCH   9  10
ENDBRANCH   5   9
BRANCH   8  16
HETATM   16  O   UNL     1      33.831  72.299  23.594  1.00  0.00    -0.358 OA
HETATM   17  H   UNL     1      33.670  72.579  24.474  1.00  0.00     0.217 HD
ENDBRANCH   8  16
ENDBRANCH   1   3
TORSDOF 7
ENDMDL
MODEL 2
REMARK VINA RESULT:      -6.2      3.183      4.929
REMARK  7 active torsions:
REMARK  status: ('A' for Active; 'I' for Inactive)
REMARK    1  A    between atoms: O_1  and  C_12 
REMARK    2  A    between atoms: O_3  and  C_15 
REMARK    3  A    between atoms: C_5  and  C_6 
REMARK    4  A    between atoms: C_5  and  C_7 
REMARK    5  A    between atoms: C_6  and  C_8 
REMARK    6  A    between atoms: C_7  and  C_9 
REMARK    7  A    between atoms: C_9  and  C_14 
ROOT
HETATM    1  O   UNL     1      31.689  76.304  23.580  1.00  0.00    -0.358 OA
HETATM    2  H   UNL     1      31.284  75.519  23.893  1.00  0.00     0.217 HD
ENDROOT
BRANCH   1   3
HETATM    3  C   UNL     1      31.514  76.690  22.284  1.00  0.00     0.099 A 
HETATM    4  C   UNL     1      31.840  75.806  21.256  1.00  0.00     0.046 A 
HETATM    5  C   UNL     1      31.667  76.190  19.926  1.00  0.00    -0.055 A 
HETATM    6  C   UNL     1      31.171  77.458  19.625  1.00  0.00     0.010 A 
HETATM    7  C   UNL     1      30.844  78.342  20.654  1.00  0.00     0.040 A 
HETATM    8  C   UNL     1      31.017  77.957  21.984  1.00  0.00     0.098 A 
BRANCH   5   9
HETATM    9  C   UNL     1      32.020  75.234  18.813  1.00  0.00     0.038 C 
BRANCH   9  10
HETATM   10  C   UNL     1      31.107  75.343  17.588  1.00  0.00     0.005 C 
BRANCH  10  11
HETATM   11  C   UNL     1      31.768  76.075  16.411  1.00  0.00     0.011 C 
BRANCH  11  12
HETATM   12  C   UNL     1      30.811  77.044  15.716  1.00  0.00     0.113 C 
BRANCH  12  13
HETATM   13  C   UNL     1      31.187  78.496  15.907  1.00  0.00     0.172 C 
HETATM   14  O   UNL     1      30.231  79.170  16.598  1.00  0.00    -0.648 OA
HETATM   15  O   UNL     1      32.222  79.020  15.517  1.00  0.00    -0.648 OA
ENDBRANCH  12  13
ENDBRANCH  11  12
ENDBRANCH  10  11
ENDBRANCH   9  10
ENDBRANCH   5   9
BRANCH   8  16
HETATM   16  O   UNL     1      30.696  78.829  22.981  1.00  0.00    -0.358 OA
HETATM   17  H   UNL     1      30.355  78.508  23.792  1.00  0.00     0.217 HD
ENDBRANCH   8  16
ENDBRANCH   1   3
TORSDOF 7
ENDMDL
MODEL 3
REMARK VINA RESULT:      -6.1      3.695      5.692
REMARK  7 active torsions:
REMARK  status: ('A' for Active; 'I' for Inactive)
REMARK    1  A    between atoms: O_1  and  C_12 
REMARK    2  A    between atoms: O_3  and  C_15 
REMARK    3  A    between atoms: C_5  and  C_6 
REMARK    4  A    between atoms: C_5  and  C_7 
REMARK    5  A    between atoms: C_6  and  C_8 
REMARK    6  A    between atoms: C_7  and  C_9 
REMARK    7  A    between atoms: C_9  and  C_14 
ROOT
HETATM    1  O   UNL     1      29.941  79.385  16.547  1.00  0.00    -0.358 OA
HETATM    2  H   UNL     1      29.235  79.447  15.935  1.00  0.00     0.217 HD
ENDROOT
BRANCH   1   3
HETATM    3  C   UNL     1      30.448  78.164  16.881  1.00  0.00     0.099 A 
HETATM    4  C   UNL     1      30.623  77.840  18.226  1.00  0.00     0.046 A 
HETATM    5  C   UNL     1      31.144  76.595  18.581  1.00  0.00    -0.055 A 
HETATM    6  C   UNL     1      31.489  75.675  17.591  1.00  0.00     0.010 A 
HETATM    7  C   UNL     1      31.313  76.000  16.245  1.00  0.00     0.040 A 
HETATM    8  C   UNL     1      30.793  77.245  15.891  1.00  0.00     0.098 A 
BRANCH   5   9
HETATM    9  C   UNL     1      31.334  76.245  20.036  1.00  0.00     0.038 C 
BRANCH   9  10
HETATM   10  C   UNL     1      32.002  77.352  20.859  1.00  0.00     0.005 C 
BRANCH  10  11
HETATM   11  C   UNL     1      31.225  77.699  22.137  1.00  0.00     0.011 C 
BRANCH  11  12
HETATM   12  C   UNL     1      30.813  79.170  22.187  1.00  0.00     0.113 C 
BRANCH  12  13
HETATM   13  C   UNL     1      31.973  80.109  22.428  1.00  0.00     0.172 C 
HETATM   14  O   UNL     1      32.889  79.562  23.270  1.00  0.00    -0.648 OA
HETATM   15  O   UNL     1      32.108  81.217  21.926  1.00  0.00    -0.648 OA
ENDBRANCH  12  13
ENDBRANCH  11  12
ENDBRANCH  10  11
ENDBRANCH   9  10
ENDBRANCH   5   9
BRANCH   8  16
HETATM   16  O   UNL     1      30.626  77.551  14.574  1.00  0.00    -0.358 OA
HETATM   17  H   UNL     1      31.352  77.863  14.070  1.00  0.00     0.217 HD
ENDBRANCH   8  16
ENDBRANCH   1   3
TORSDOF 7
ENDMDL
MODEL 4
REMARK VINA RESULT:      -6.1      3.209      4.604
REMARK  7 active torsions:
REMARK  status: ('A' for Active; 'I' for Inactive)
REMARK    1  A    between atoms: O_1  and  C_12 
REMARK    2  A    between atoms: O_3  and  C_15 
REMARK    3  A    between atoms: C_5  and  C_6 
REMARK    4  A    between atoms: C_5  and  C_7 
REMARK    5  A    between atoms: C_6  and  C_8 
REMARK    6  A    between atoms: C_7  and  C_9 
REMARK    7  A    between atoms: C_9  and  C_14 
ROOT
HETATM    1  O   UNL     1      30.537  78.290  22.911  1.00  0.00    -0.358 OA
HETATM    2  H   UNL     1      30.327  79.134  22.561  1.00  0.00     0.217 HD
ENDROOT
BRANCH   1   3
HETATM    3  C   UNL     1      31.186  77.374  22.137  1.00  0.00     0.099 A 
HETATM    4  C   UNL     1      31.379  77.638  20.781  1.00  0.00     0.046 A 
HETATM    5  C   UNL     1      32.039  76.708  19.977  1.00  0.00    -0.055 A 
HETATM    6  C   UNL     1      32.505  75.515  20.530  1.00  0.00     0.010 A 
HETATM    7  C   UNL     1      32.313  75.253  21.887  1.00  0.00     0.040 A 
HETATM    8  C   UNL     1      31.652  76.183  22.689  1.00  0.00     0.098 A 
BRANCH   5   9
HETATM    9  C   UNL     1      32.247  76.992  18.511  1.00  0.00     0.038 C 
BRANCH   9  10
HETATM   10  C   UNL     1      31.584  75.970  17.580  1.00  0.00     0.005 C 
BRANCH  10  11
HETATM   11  C   UNL     1      31.757  76.313  16.094  1.00  0.00     0.011 C 
BRANCH  11  12
HETATM   12  C   UNL     1      31.624  77.811  15.822  1.00  0.00     0.113 C 
BRANCH  12  13
HETATM   13  C   UNL     1      30.223  78.337  16.039  1.00  0.00     0.172 C 
HETATM   14  O   UNL     1      29.332  77.730  15.212  1.00  0.00    -0.648 OA
HETATM   15  O   UNL     1      29.901  79.185  16.860  1.00  0.00    -0.648 OA
ENDBRANCH  12  13
ENDBRANCH  11  12
ENDBRANCH  10  11
ENDBRANCH   9  10
ENDBRANCH   5   9
BRANCH   8  16
HETATM   16  O   UNL     1      31.469  75.915  24.013  1.00  0.00    -0.358 OA
HETATM   17  H   UNL     1      30.935  76.481  24.536  1.00  0.00     0.217 HD
ENDBRANCH   8  16
ENDBRANCH   1   3
TORSDOF 7
ENDMDL
MODEL 5
REMARK VINA RESULT:      -5.9      1.222      1.496
REMARK  7 active torsions:
REMARK  status: ('A' for Active; 'I' for Inactive)
REMARK    1  A    between atoms: O_1  and  C_12 
REMARK    2  A    between atoms: O_3  and  C_15 
REMARK    3  A    between atoms: C_5  and  C_6 
REMARK    4  A    between atoms: C_5  and  C_7 
REMARK    5  A    between atoms: C_6  and  C_8 
REMARK    6  A    between atoms: C_7  and  C_9 
REMARK    7  A    between atoms: C_9  and  C_14 
ROOT
HETATM    1  O   UNL     1      31.065  72.810  23.502  1.00  0.00    -0.358 OA
HETATM    2  H   UNL     1      30.761  71.924  23.481  1.00  0.00     0.217 HD
ENDROOT
BRANCH   1   3
HETATM    3  C   UNL     1      31.875  73.277  22.510  1.00  0.00     0.099 A 
HETATM    4  C   UNL     1      31.334  74.081  21.507  1.00  0.00     0.046 A 
HETATM    5  C   UNL     1      32.152  74.564  20.484  1.00  0.00    -0.055 A 
HETATM    6  C   UNL     1      33.509  74.242  20.465  1.00  0.00     0.010 A 
HETATM    7  C   UNL     1      34.049  73.439  21.471  1.00  0.00     0.040 A 
HETATM    8  C   UNL     1      33.231  72.956  22.492  1.00  0.00     0.098 A 
BRANCH   5   9
HETATM    9  C   UNL     1      31.567  75.431  19.398  1.00  0.00     0.038 C 
BRANCH   9  10
HETATM   10  C   UNL     1      31.856  76.926  19.574  1.00  0.00     0.005 C 
BRANCH  10  11
HETATM   11  C   UNL     1      31.022  77.570  20.690  1.00  0.00     0.011 C 
BRANCH  11  12
HETATM   12  C   UNL     1      31.804  78.632  21.463  1.00  0.00     0.113 C 
BRANCH  12  13
HETATM   13  C   UNL     1      30.935  79.470  22.374  1.00  0.00     0.172 C 
HETATM   14  O   UNL     1      31.676  80.360  23.085  1.00  0.00    -0.648 OA
HETATM   15  O   UNL     1      29.718  79.393  22.463  1.00  0.00    -0.648 OA
ENDBRANCH  12  13
ENDBRANCH  11  12
ENDBRANCH  10  11
ENDBRANCH   9  10
ENDBRANCH   5   9
BRANCH   8  16
HETATM   16  O   UNL     1      33.770  72.172  23.468  1.00  0.00    -0.358 OA
HETATM   17  H   UNL     1      33.583  71.254  23.487  1.00  0.00     0.217 HD
ENDBRANCH   8  16
ENDBRANCH   1   3
TORSDOF 7
ENDMDL
MODEL 6
REMARK VINA RESULT:      -5.9      4.082      5.585
REMARK  7 active torsions:
REMARK  status: ('A' for Active; 'I' for Inactive)
REMARK    1  A    between atoms: O_1  and  C_12 
REMARK    2  A    between atoms: O_3  and  C_15 
REMARK    3  A    between atoms: C_5  and  C_6 
REMARK    4  A    between atoms: C_5  and  C_7 
REMARK    5  A    between atoms: C_6  and  C_8 
REMARK    6  A    between atoms: C_7  and  C_9 
REMARK    7  A    between atoms: C_9  and  C_14 
ROOT
HETATM    1  O   UNL     1      31.186  78.905  22.867  1.00  0.00    -0.358 OA
HETATM    2  H   UNL     1      31.298  78.700  23.774  1.00  0.00     0.217 HD
ENDROOT
BRANCH   1   3
HETATM    3  C   UNL     1      31.265  77.917  21.930  1.00  0.00     0.099 A 
HETATM    4  C   UNL     1      31.029  78.223  20.590  1.00  0.00     0.046 A 
HETATM    5  C   UNL     1      31.104  77.221  19.623  1.00  0.00    -0.055 A 
HETATM    6  C   UNL     1      31.415  75.913  19.996  1.00  0.00     0.010 A 
HETATM    7  C   UNL     1      31.652  75.608  21.336  1.00  0.00     0.040 A 
HETATM    8  C   UNL     1      31.576  76.610  22.303  1.00  0.00     0.098 A 
BRANCH   5   9
HETATM    9  C   UNL     1      30.847  77.551  18.174  1.00  0.00     0.038 C 
BRANCH   9  10
HETATM   10  C   UNL     1      31.268  76.445  17.200  1.00  0.00     0.005 C 
BRANCH  10  11
HETATM   11  C   UNL     1      30.192  76.128  16.152  1.00  0.00     0.011 C 
BRANCH  11  12
HETATM   12  C   UNL     1      29.575  77.391  15.550  1.00  0.00     0.113 C 
BRANCH  12  13
HETATM   13  C   UNL     1      28.503  77.103  14.523  1.00  0.00     0.172 C 
HETATM   14  O   UNL     1      27.752  76.028  14.878  1.00  0.00    -0.648 OA
HETATM   15  O   UNL     1      28.303  77.750  13.505  1.00  0.00    -0.648 OA
ENDBRANCH  12  13
ENDBRANCH  11  12
ENDBRANCH  10  11
ENDBRANCH   9  10
ENDBRANCH   5   9
BRANCH   8  16
HETATM   16  O   UNL     1      31.809  76.300  23.610  1.00  0.00    -0.358 OA
HETATM   17  H   UNL     1      32.442  76.786  24.101  1.00  0.00     0.217 HD
ENDBRANCH   8  16
ENDBRANCH   1   3
TORSDOF 7
ENDMDL
MODEL 7
REMARK VINA RESULT:      -5.9      1.580      4.632
REMARK  7 active torsions:
REMARK  status: ('A' for Active; 'I' for Inactive)
REMARK    1  A    between atoms: O_1  and  C_12 
REMARK    2  A    between atoms: O_3  and  C_15 
REMARK    3  A    between atoms: C_5  and  C_6 
REMARK    4  A    between atoms: C_5  and  C_7 
REMARK    5  A    between atoms: C_6  and  C_8 
REMARK    6  A    between atoms: C_7  and  C_9 
REMARK    7  A    between atoms: C_9  and  C_14 
ROOT
HETATM    1  O   UNL     1      31.713  76.310  23.657  1.00  0.00    -0.358 OA
HETATM    2  H   UNL     1      32.283  75.599  23.876  1.00  0.00     0.217 HD
ENDROOT
BRANCH   1   3
HETATM    3  C   UNL     1      31.569  76.692  22.357  1.00  0.00     0.099 A 
HETATM    4  C   UNL     1      32.021  75.849  21.341  1.00  0.00     0.046 A 
HETATM    5  C   UNL     1      31.882  76.229  20.006  1.00  0.00    -0.055 A 
HETATM    6  C   UNL     1      31.293  77.453  19.687  1.00  0.00     0.010 A 
HETATM    7  C   UNL     1      30.840  78.295  20.703  1.00  0.00     0.040 A 
HETATM    8  C   UNL     1      30.980  77.914  22.038  1.00  0.00     0.098 A 
BRANCH   5   9
HETATM    9  C   UNL     1      32.371  75.318  18.908  1.00  0.00     0.038 C 
BRANCH   9  10
HETATM   10  C   UNL     1      32.207  73.827  19.219  1.00  0.00     0.005 C 
BRANCH  10  11
HETATM   11  C   UNL     1      33.520  73.041  19.095  1.00  0.00     0.011 C 
BRANCH  11  12
HETATM   12  C   UNL     1      34.474  73.315  20.257  1.00  0.00     0.113 C 
BRANCH  12  13
HETATM   13  C   UNL     1      34.037  72.674  21.555  1.00  0.00     0.172 C 
HETATM   14  O   UNL     1      34.264  73.493  22.615  1.00  0.00    -0.648 OA
HETATM   15  O   UNL     1      33.522  71.569  21.665  1.00  0.00    -0.648 OA
ENDBRANCH  12  13
ENDBRANCH  11  12
ENDBRANCH  10  11
ENDBRANCH   9  10
ENDBRANCH   5   9
BRANCH   8  16
HETATM   16  O   UNL     1      30.535  78.746  23.022  1.00  0.00    -0.358 OA
HETATM   17  H   UNL     1      30.970  79.562  23.177  1.00  0.00     0.217 HD
ENDBRANCH   8  16
ENDBRANCH   1   3
TORSDOF 7
ENDMDL
MODEL 8
REMARK VINA RESULT:      -5.9      0.874      1.860
REMARK  7 active torsions:
REMARK  status: ('A' for Active; 'I' for Inactive)
REMARK    1  A    between atoms: O_1  and  C_12 
REMARK    2  A    between atoms: O_3  and  C_15 
REMARK    3  A    between atoms: C_5  and  C_6 
REMARK    4  A    between atoms: C_5  and  C_7 
REMARK    5  A    between atoms: C_6  and  C_8 
REMARK    6  A    between atoms: C_7  and  C_9 
REMARK    7  A    between atoms: C_9  and  C_14 
ROOT
HETATM    1  O   UNL     1      34.370  73.537  22.793  1.00  0.00    -0.358 OA
HETATM    2  H   UNL     1      34.402  72.888  23.469  1.00  0.00     0.217 HD
ENDROOT
BRANCH   1   3
HETATM    3  C   UNL     1      33.269  73.636  21.995  1.00  0.00     0.099 A 
HETATM    4  C   UNL     1      33.302  74.479  20.884  1.00  0.00     0.046 A 
HETATM    5  C   UNL     1      32.181  74.591  20.061  1.00  0.00    -0.055 A 
HETATM    6  C   UNL     1      31.028  73.860  20.349  1.00  0.00     0.010 A 
HETATM    7  C   UNL     1      30.997  73.016  21.460  1.00  0.00     0.040 A 
HETATM    8  C   UNL     1      32.117  72.905  22.283  1.00  0.00     0.098 A 
BRANCH   5   9
HETATM    9  C   UNL     1      32.216  75.503  18.861  1.00  0.00     0.038 C 
BRANCH   9  10
HETATM   10  C   UNL     1      31.260  76.697  18.961  1.00  0.00     0.005 C 
BRANCH  10  11
HETATM   11  C   UNL     1      31.828  77.851  19.799  1.00  0.00     0.011 C 
BRANCH  11  12
HETATM   12  C   UNL     1      31.007  78.112  21.063  1.00  0.00     0.113 C 
BRANCH  12  13
HETATM   13  C   UNL     1      31.574  77.441  22.294  1.00  0.00     0.172 C 
HETATM   14  O   UNL     1      32.794  77.945  22.617  1.00  0.00    -0.648 OA
HETATM   15  O   UNL     1      31.019  76.568  22.947  1.00  0.00    -0.648 OA
ENDBRANCH  12  13
ENDBRANCH  11  12
ENDBRANCH  10  11
ENDBRANCH   9  10
ENDBRANCH   5   9
BRANCH   8  16
HETATM   16  O   UNL     1      32.074  72.078  23.365  1.00  0.00    -0.358 OA
HETATM   17  H   UNL     1      31.790  71.191  23.265  1.00  0.00     0.217 HD
ENDBRANCH   8  16
ENDBRANCH   1   3
TORSDOF 7
ENDMDL
MODEL 9
REMARK VINA RESULT:      -5.9      3.110      3.876
REMARK  7 active torsions:
REMARK  status: ('A' for Active; 'I' for Inactive)
REMARK    1  A    between atoms: O_1  and  C_12 
REMARK    2  A    between atoms: O_3  and  C_15 
REMARK    3  A    between atoms: C_5  and  C_6 
REMARK    4  A    between atoms: C_5  and  C_7 
REMARK    5  A    between atoms: C_6  and  C_8 
REMARK    6  A    between atoms: C_7  and  C_9 
REMARK    7  A    between atoms: C_9  and  C_14 
ROOT
HETATM    1  O   UNL     1      31.557  75.942  23.798  1.00  0.00    -0.358 OA
HETATM    2  H   UNL     1      32.196  75.726  24.449  1.00  0.00     0.217 HD
ENDROOT
BRANCH   1   3
HETATM    3  C   UNL     1      31.466  75.199  22.659  1.00  0.00     0.099 A 
HETATM    4  C   UNL     1      31.898  75.744  21.450  1.00  0.00     0.046 A 
HETATM    5  C   UNL     1      31.809  74.995  20.277  1.00  0.00    -0.055 A 
HETATM    6  C   UNL     1      31.287  73.701  20.312  1.00  0.00     0.010 A 
HETATM    7  C   UNL     1      30.857  73.157  21.523  1.00  0.00     0.040 A 
HETATM    8  C   UNL     1      30.946  73.907  22.696  1.00  0.00     0.098 A 
BRANCH   5   9
HETATM    9  C   UNL     1      32.275  75.584  18.969  1.00  0.00     0.038 C 
BRANCH   9  10
HETATM   10  C   UNL     1      32.185  77.113  18.909  1.00  0.00     0.005 C 
BRANCH  10  11
HETATM   11  C   UNL     1      30.808  77.614  18.451  1.00  0.00     0.011 C 
BRANCH  11  12
HETATM   12  C   UNL     1      30.512  77.255  16.994  1.00  0.00     0.113 C 
BRANCH  12  13
HETATM   13  C   UNL     1      31.536  77.800  16.024  1.00  0.00     0.172 C 
HETATM   14  O   UNL     1      31.570  79.158  16.048  1.00  0.00    -0.648 OA
HETATM   15  O   UNL     1      32.269  77.127  15.311  1.00  0.00    -0.648 OA
ENDBRANCH  12  13
ENDBRANCH  11  12
ENDBRANCH  10  11
ENDBRANCH   9  10
ENDBRANCH   5   9
BRANCH   8  16
HETATM   16  O   UNL     1      30.521  73.364  23.871  1.00  0.00    -0.358 OA
HETATM   17  H   UNL     1      30.006  73.876  24.464  1.00  0.00     0.217 HD
ENDBRANCH   8  16
ENDBRANCH   1   3
TORSDOF 7
ENDMDL
