MODEL 1
REMARK VINA RESULT:      -7.1      0.000      0.000
REMARK  4 active torsions:
REMARK  status: ('A' for Active; 'I' for Inactive)
REMARK    1  A    between atoms: O_1  and  C_8 
REMARK    2  A    between atoms: O_2  and  C_9 
REMARK    3  A    between atoms: C_5  and  C_11 
REMARK    4  A    between atoms: C_12  and  C_13 
ROOT
ATOM      1  O   UNL A   1      19.008  -1.982  29.241  1.00  0.00    -0.358 OA
ATOM      2  H   UNL A   1      18.083  -2.135  29.241  1.00  0.00     0.217 HD
ENDROOT
BRANCH   1   3
ATOM      3  C   UNL A   1      19.807  -2.646  30.121  1.00  0.00     0.099 A 
ATOM      4  C   UNL A   1      20.347  -1.961  31.210  1.00  0.00     0.050 A 
ATOM      5  C   UNL A   1      21.166  -2.631  32.119  1.00  0.00    -0.033 A 
ATOM      6  C   UNL A   1      21.443  -3.986  31.941  1.00  0.00     0.014 A 
ATOM      7  C   UNL A   1      20.902  -4.671  30.853  1.00  0.00     0.040 A 
ATOM      8  C   UNL A   1      20.084  -4.001  29.943  1.00  0.00     0.098 A 
BRANCH   5   9
ATOM      9  C   UNL A   1      21.730  -1.916  33.253  1.00  0.00     0.018 C 
ATOM     10  C   UNL A   1      22.193  -2.533  34.337  1.00  0.00     0.085 C 
BRANCH  10  11
ATOM     11  C   UNL A   1      22.730  -1.712  35.441  1.00  0.00     0.198 C 
ATOM     12  O   UNL A   1      23.838  -1.068  35.003  1.00  0.00    -0.645 OA
ATOM     13  O   UNL A   1      22.269  -1.617  36.565  1.00  0.00    -0.645 OA
ENDBRANCH  10  11
ENDBRANCH   5   9
BRANCH   8  14
ATOM     14  O   UNL A   1      19.561  -4.681  28.886  1.00  0.00    -0.358 OA
ATOM     15  H   UNL A   1      20.119  -4.961  28.186  1.00  0.00     0.217 HD
ENDBRANCH   8  14
ENDBRANCH   1   3
TORSDOF 4
ENDMDL
MODEL 2
REMARK VINA RESULT:      -6.9      3.448      4.774
REMARK  4 active torsions:
REMARK  status: ('A' for Active; 'I' for Inactive)
REMARK    1  A    between atoms: O_1  and  C_8 
REMARK    2  A    between atoms: O_2  and  C_9 
REMARK    3  A    between atoms: C_5  and  C_11 
REMARK    4  A    between atoms: C_12  and  C_13 
ROOT
ATOM      1  O   UNL A   1      21.948  -1.073  34.413  1.00  0.00    -0.358 OA
ATOM      2  H   UNL A   1      21.404  -0.316  34.316  1.00  0.00     0.217 HD
ENDROOT
BRANCH   1   3
ATOM      3  C   UNL A   1      21.884  -2.080  33.499  1.00  0.00     0.099 A 
ATOM      4  C   UNL A   1      22.076  -3.398  33.913  1.00  0.00     0.050 A 
ATOM      5  C   UNL A   1      22.010  -4.438  32.986  1.00  0.00    -0.033 A 
ATOM      6  C   UNL A   1      21.750  -4.160  31.644  1.00  0.00     0.014 A 
ATOM      7  C   UNL A   1      21.557  -2.842  31.229  1.00  0.00     0.040 A 
ATOM      8  C   UNL A   1      21.624  -1.802  32.157  1.00  0.00     0.098 A 
BRANCH   5   9
ATOM      9  C   UNL A   1      22.212  -5.812  33.418  1.00  0.00     0.018 C 
ATOM     10  C   UNL A   1      21.248  -6.541  33.974  1.00  0.00     0.085 C 
BRANCH  10  11
ATOM     11  C   UNL A   1      21.562  -7.922  34.395  1.00  0.00     0.198 C 
ATOM     12  O   UNL A   1      22.855  -7.970  34.796  1.00  0.00    -0.645 OA
ATOM     13  O   UNL A   1      20.800  -8.873  34.388  1.00  0.00    -0.645 OA
ENDBRANCH  10  11
ENDBRANCH   5   9
BRANCH   8  14
ATOM     14  O   UNL A   1      21.433  -0.520  31.740  1.00  0.00    -0.358 OA
ATOM     15  H   UNL A   1      22.167   0.054  31.639  1.00  0.00     0.217 HD
ENDBRANCH   8  14
ENDBRANCH   1   3
TORSDOF 4
ENDMDL
MODEL 3
REMARK VINA RESULT:      -6.9      3.278      3.998
REMARK  4 active torsions:
REMARK  status: ('A' for Active; 'I' for Inactive)
REMARK    1  A    between atoms: O_1  and  C_8 
REMARK    2  A    between atoms: O_2  and  C_9 
REMARK    3  A    between atoms: C_5  and  C_11 
REMARK    4  A    between atoms: C_12  and  C_13 
ROOT
ATOM      1  O   UNL A   1      21.250  -0.804  31.956  1.00  0.00    -0.358 OA
ATOM      2  H   UNL A   1      20.766  -0.406  32.653  1.00  0.00     0.217 HD
ENDROOT
BRANCH   1   3
ATOM      3  C   UNL A   1      21.119  -2.137  31.711  1.00  0.00     0.099 A 
ATOM      4  C   UNL A   1      21.816  -3.053  32.498  1.00  0.00     0.050 A 
ATOM      5  C   UNL A   1      21.688  -4.421  32.257  1.00  0.00    -0.033 A 
ATOM      6  C   UNL A   1      20.860  -4.872  31.229  1.00  0.00     0.014 A 
ATOM      7  C   UNL A   1      20.162  -3.957  30.442  1.00  0.00     0.040 A 
ATOM      8  C   UNL A   1      20.292  -2.589  30.683  1.00  0.00     0.098 A 
BRANCH   5   9
ATOM      9  C   UNL A   1      22.417  -5.375  33.077  1.00  0.00     0.018 C 
ATOM     10  C   UNL A   1      22.786  -6.573  32.633  1.00  0.00     0.085 C 
BRANCH  10  11
ATOM     11  C   UNL A   1      23.508  -7.475  33.554  1.00  0.00     0.198 C 
ATOM     12  O   UNL A   1      24.317  -8.280  32.826  1.00  0.00    -0.645 OA
ATOM     13  O   UNL A   1      23.406  -7.505  34.768  1.00  0.00    -0.645 OA
ENDBRANCH  10  11
ENDBRANCH   5   9
BRANCH   8  14
ATOM     14  O   UNL A   1      19.604  -1.705  29.909  1.00  0.00    -0.358 OA
ATOM     15  H   UNL A   1      19.713  -0.783  30.040  1.00  0.00     0.217 HD
ENDBRANCH   8  14
ENDBRANCH   1   3
TORSDOF 4
ENDMDL
MODEL 4
REMARK VINA RESULT:      -6.7      3.254      3.954
REMARK  4 active torsions:
REMARK  status: ('A' for Active; 'I' for Inactive)
REMARK    1  A    between atoms: O_1  and  C_8 
REMARK    2  A    between atoms: O_2  and  C_9 
REMARK    3  A    between atoms: C_5  and  C_11 
REMARK    4  A    between atoms: C_12  and  C_13 
ROOT
ATOM      1  O   UNL A   1      21.334  -0.879  31.624  1.00  0.00    -0.358 OA
ATOM      2  H   UNL A   1      20.615  -0.288  31.522  1.00  0.00     0.217 HD
ENDROOT
BRANCH   1   3
ATOM      3  C   UNL A   1      21.140  -2.219  31.477  1.00  0.00     0.099 A 
ATOM      4  C   UNL A   1      21.726  -3.102  32.384  1.00  0.00     0.050 A 
ATOM      5  C   UNL A   1      21.533  -4.477  32.244  1.00  0.00    -0.033 A 
ATOM      6  C   UNL A   1      20.751  -4.967  31.199  1.00  0.00     0.014 A 
ATOM      7  C   UNL A   1      20.164  -4.084  30.292  1.00  0.00     0.040 A 
ATOM      8  C   UNL A   1      20.359  -2.711  30.432  1.00  0.00     0.098 A 
BRANCH   5   9
ATOM      9  C   UNL A   1      22.146  -5.396  33.189  1.00  0.00     0.018 C 
ATOM     10  C   UNL A   1      21.835  -6.689  33.242  1.00  0.00     0.085 C 
BRANCH  10  11
ATOM     11  C   UNL A   1      22.503  -7.534  34.251  1.00  0.00     0.198 C 
ATOM     12  O   UNL A   1      21.611  -8.439  34.720  1.00  0.00    -0.645 OA
ATOM     13  O   UNL A   1      23.664  -7.449  34.615  1.00  0.00    -0.645 OA
ENDBRANCH  10  11
ENDBRANCH   5   9
BRANCH   8  14
ATOM     14  O   UNL A   1      19.779  -1.858  29.541  1.00  0.00    -0.358 OA
ATOM     15  H   UNL A   1      18.880  -1.615  29.643  1.00  0.00     0.217 HD
ENDBRANCH   8  14
ENDBRANCH   1   3
TORSDOF 4
ENDMDL
MODEL 5
REMARK VINA RESULT:      -6.6      1.553      5.766
REMARK  4 active torsions:
REMARK  status: ('A' for Active; 'I' for Inactive)
REMARK    1  A    between atoms: O_1  and  C_8 
REMARK    2  A    between atoms: O_2  and  C_9 
REMARK    3  A    between atoms: C_5  and  C_11 
REMARK    4  A    between atoms: C_12  and  C_13 
ROOT
ATOM      1  O   UNL A   1      21.651  -0.849  33.157  1.00  0.00    -0.358 OA
ATOM      2  H   UNL A   1      22.105  -0.584  33.933  1.00  0.00     0.217 HD
ENDROOT
BRANCH   1   3
ATOM      3  C   UNL A   1      21.581  -2.168  32.826  1.00  0.00     0.099 A 
ATOM      4  C   UNL A   1      20.968  -2.545  31.632  1.00  0.00     0.050 A 
ATOM      5  C   UNL A   1      20.892  -3.894  31.281  1.00  0.00    -0.033 A 
ATOM      6  C   UNL A   1      21.433  -4.864  32.125  1.00  0.00     0.014 A 
ATOM      7  C   UNL A   1      22.048  -4.486  33.319  1.00  0.00     0.040 A 
ATOM      8  C   UNL A   1      22.122  -3.139  33.669  1.00  0.00     0.098 A 
BRANCH   5   9
ATOM      9  C   UNL A   1      20.251  -4.286  30.037  1.00  0.00     0.018 C 
ATOM     10  C   UNL A   1      19.232  -3.614  29.508  1.00  0.00     0.085 C 
BRANCH  10  11
ATOM     11  C   UNL A   1      18.640  -4.107  28.248  1.00  0.00     0.198 C 
ATOM     12  O   UNL A   1      18.412  -3.050  27.433  1.00  0.00    -0.645 OA
ATOM     13  O   UNL A   1      18.391  -5.268  27.969  1.00  0.00    -0.645 OA
ENDBRANCH  10  11
ENDBRANCH   5   9
BRANCH   8  14
ATOM     14  O   UNL A   1      22.726  -2.783  34.837  1.00  0.00    -0.358 OA
ATOM     15  H   UNL A   1      22.672  -3.347  35.583  1.00  0.00     0.217 HD
ENDBRANCH   8  14
ENDBRANCH   1   3
TORSDOF 4
ENDMDL
MODEL 6
REMARK VINA RESULT:      -6.6      1.838      5.849
REMARK  4 active torsions:
REMARK  status: ('A' for Active; 'I' for Inactive)
REMARK    1  A    between atoms: O_1  and  C_8 
REMARK    2  A    between atoms: O_2  and  C_9 
REMARK    3  A    between atoms: C_5  and  C_11 
REMARK    4  A    between atoms: C_12  and  C_13 
ROOT
ATOM      1  O   UNL A   1      22.441  -5.140  33.854  1.00  0.00    -0.358 OA
ATOM      2  H   UNL A   1      22.025  -5.944  33.612  1.00  0.00     0.217 HD
ENDROOT
BRANCH   1   3
ATOM      3  C   UNL A   1      22.067  -3.974  33.261  1.00  0.00     0.099 A 
ATOM      4  C   UNL A   1      21.685  -3.977  31.919  1.00  0.00     0.050 A 
ATOM      5  C   UNL A   1      21.297  -2.787  31.301  1.00  0.00    -0.033 A 
ATOM      6  C   UNL A   1      21.289  -1.596  32.026  1.00  0.00     0.014 A 
ATOM      7  C   UNL A   1      21.670  -1.593  33.368  1.00  0.00     0.040 A 
ATOM      8  C   UNL A   1      22.058  -2.782  33.985  1.00  0.00     0.098 A 
BRANCH   5   9
ATOM      9  C   UNL A   1      20.902  -2.791  29.902  1.00  0.00     0.018 C 
ATOM     10  C   UNL A   1      19.632  -2.867  29.512  1.00  0.00     0.085 C 
BRANCH  10  11
ATOM     11  C   UNL A   1      19.338  -2.880  28.065  1.00  0.00     0.198 C 
ATOM     12  O   UNL A   1      20.452  -2.504  27.392  1.00  0.00    -0.645 OA
ATOM     13  O   UNL A   1      18.277  -3.177  27.542  1.00  0.00    -0.645 OA
ENDBRANCH  10  11
ENDBRANCH   5   9
BRANCH   8  14
ATOM     14  O   UNL A   1      22.426  -2.766  35.296  1.00  0.00    -0.358 OA
ATOM     15  H   UNL A   1      22.437  -1.958  35.770  1.00  0.00     0.217 HD
ENDBRANCH   8  14
ENDBRANCH   1   3
TORSDOF 4
ENDMDL
MODEL 7
REMARK VINA RESULT:      -6.6      0.805      1.848
REMARK  4 active torsions:
REMARK  status: ('A' for Active; 'I' for Inactive)
REMARK    1  A    between atoms: O_1  and  C_8 
REMARK    2  A    between atoms: O_2  and  C_9 
REMARK    3  A    between atoms: C_5  and  C_11 
REMARK    4  A    between atoms: C_12  and  C_13 
ROOT
ATOM      1  O   UNL A   1      20.757  -5.759  29.555  1.00  0.00    -0.358 OA
ATOM      2  H   UNL A   1      20.565  -5.807  28.640  1.00  0.00     0.217 HD
ENDROOT
BRANCH   1   3
ATOM      3  C   UNL A   1      20.642  -4.572  30.213  1.00  0.00     0.099 A 
ATOM      4  C   UNL A   1      21.304  -4.393  31.428  1.00  0.00     0.050 A 
ATOM      5  C   UNL A   1      21.194  -3.181  32.110  1.00  0.00    -0.033 A 
ATOM      6  C   UNL A   1      20.424  -2.148  31.576  1.00  0.00     0.014 A 
ATOM      7  C   UNL A   1      19.763  -2.327  30.361  1.00  0.00     0.040 A 
ATOM      8  C   UNL A   1      19.872  -3.539  29.680  1.00  0.00     0.098 A 
BRANCH   5   9
ATOM      9  C   UNL A   1      21.883  -2.995  33.377  1.00  0.00     0.018 C 
ATOM     10  C   UNL A   1      21.818  -1.864  34.074  1.00  0.00     0.085 C 
BRANCH  10  11
ATOM     11  C   UNL A   1      22.570  -1.772  35.342  1.00  0.00     0.198 C 
ATOM     12  O   UNL A   1      23.759  -1.170  35.099  1.00  0.00    -0.645 OA
ATOM     13  O   UNL A   1      22.200  -2.166  36.435  1.00  0.00    -0.645 OA
ENDBRANCH  10  11
ENDBRANCH   5   9
BRANCH   8  14
ATOM     14  O   UNL A   1      19.222  -3.701  28.494  1.00  0.00    -0.358 OA
ATOM     15  H   UNL A   1      18.304  -3.524  28.434  1.00  0.00     0.217 HD
ENDBRANCH   8  14
ENDBRANCH   1   3
TORSDOF 4
ENDMDL
MODEL 8
REMARK VINA RESULT:      -6.5      1.731      5.803
REMARK  4 active torsions:
REMARK  status: ('A' for Active; 'I' for Inactive)
REMARK    1  A    between atoms: O_1  and  C_8 
REMARK    2  A    between atoms: O_2  and  C_9 
REMARK    3  A    between atoms: C_5  and  C_11 
REMARK    4  A    between atoms: C_12  and  C_13 
ROOT
ATOM      1  O   UNL A   1      21.683  -0.812  33.075  1.00  0.00    -0.358 OA
ATOM      2  H   UNL A   1      22.449  -0.589  33.567  1.00  0.00     0.217 HD
ENDROOT
BRANCH   1   3
ATOM      3  C   UNL A   1      21.524  -2.077  32.598  1.00  0.00     0.099 A 
ATOM      4  C   UNL A   1      20.961  -2.270  31.337  1.00  0.00     0.050 A 
ATOM      5  C   UNL A   1      20.794  -3.563  30.837  1.00  0.00    -0.033 A 
ATOM      6  C   UNL A   1      21.192  -4.661  31.599  1.00  0.00     0.014 A 
ATOM      7  C   UNL A   1      21.756  -4.467  32.860  1.00  0.00     0.040 A 
ATOM      8  C   UNL A   1      21.922  -3.176  33.359  1.00  0.00     0.098 A 
BRANCH   5   9
ATOM      9  C   UNL A   1      20.205  -3.763  29.523  1.00  0.00     0.018 C 
ATOM     10  C   UNL A   1      19.682  -2.771  28.808  1.00  0.00     0.085 C 
BRANCH  10  11
ATOM     11  C   UNL A   1      19.093  -3.085  27.491  1.00  0.00     0.198 C 
ATOM     12  O   UNL A   1      19.517  -4.312  27.107  1.00  0.00    -0.645 OA
ATOM     13  O   UNL A   1      18.347  -2.372  26.841  1.00  0.00    -0.645 OA
ENDBRANCH  10  11
ENDBRANCH   5   9
BRANCH   8  14
ATOM     14  O   UNL A   1      22.475  -3.000  34.591  1.00  0.00    -0.358 OA
ATOM     15  H   UNL A   1      23.014  -2.252  34.761  1.00  0.00     0.217 HD
ENDBRANCH   8  14
ENDBRANCH   1   3
TORSDOF 4
ENDMDL
MODEL 9
REMARK VINA RESULT:      -6.4      2.489      5.444
REMARK  4 active torsions:
REMARK  status: ('A' for Active; 'I' for Inactive)
REMARK    1  A    between atoms: O_1  and  C_8 
REMARK    2  A    between atoms: O_2  and  C_9 
REMARK    3  A    between atoms: C_5  and  C_11 
REMARK    4  A    between atoms: C_12  and  C_13 
ROOT
ATOM      1  O   UNL A   1      21.489  -0.586  31.717  1.00  0.00    -0.358 OA
ATOM      2  H   UNL A   1      20.906  -0.451  30.996  1.00  0.00     0.217 HD
ENDROOT
BRANCH   1   3
ATOM      3  C   UNL A   1      21.651  -1.834  32.237  1.00  0.00     0.099 A 
ATOM      4  C   UNL A   1      21.538  -2.946  31.403  1.00  0.00     0.050 A 
ATOM      5  C   UNL A   1      21.704  -4.229  31.924  1.00  0.00    -0.033 A 
ATOM      6  C   UNL A   1      21.987  -4.400  33.279  1.00  0.00     0.014 A 
ATOM      7  C   UNL A   1      22.101  -3.288  34.113  1.00  0.00     0.040 A 
ATOM      8  C   UNL A   1      21.934  -2.005  33.592  1.00  0.00     0.098 A 
BRANCH   5   9
ATOM      9  C   UNL A   1      21.584  -5.388  31.054  1.00  0.00     0.018 C 
ATOM     10  C   UNL A   1      22.498  -6.354  31.009  1.00  0.00     0.085 C 
BRANCH  10  11
ATOM     11  C   UNL A   1      22.288  -7.480  30.078  1.00  0.00     0.198 C 
ATOM     12  O   UNL A   1      23.462  -8.137  29.920  1.00  0.00    -0.645 OA
ATOM     13  O   UNL A   1      21.241  -7.785  29.531  1.00  0.00    -0.645 OA
ENDBRANCH  10  11
ENDBRANCH   5   9
BRANCH   8  14
ATOM     14  O   UNL A   1      22.049  -0.927  34.417  1.00  0.00    -0.358 OA
ATOM     15  H   UNL A   1      21.985  -1.038  35.345  1.00  0.00     0.217 HD
ENDBRANCH   8  14
ENDBRANCH   1   3
TORSDOF 4
ENDMDL
