MODEL 1
REMARK VINA RESULT:      -7.3      0.000      0.000
REMARK  4 active torsions:
REMARK  status: ('A' for Active; 'I' for Inactive)
REMARK    1  A    between atoms: O_1  and  C_8 
REMARK    2  A    between atoms: O_2  and  C_9 
REMARK    3  A    between atoms: C_5  and  C_11 
REMARK    4  A    between atoms: C_12  and  C_13 
ROOT
ATOM      1  O   UNL A   1      11.169   6.793  14.425  1.00  0.00    -0.358 OA
ATOM      2  H   UNL A   1      11.085   6.243  15.180  1.00  0.00     0.217 HD
ENDROOT
BRANCH   1   3
ATOM      3  C   UNL A   1      12.186   6.589  13.544  1.00  0.00     0.099 A 
ATOM      4  C   UNL A   1      11.899   6.138  12.256  1.00  0.00     0.050 A 
ATOM      5  C   UNL A   1      12.934   5.928  11.343  1.00  0.00    -0.033 A 
ATOM      6  C   UNL A   1      14.255   6.171  11.719  1.00  0.00     0.014 A 
ATOM      7  C   UNL A   1      14.541   6.624  13.007  1.00  0.00     0.040 A 
ATOM      8  C   UNL A   1      13.507   6.833  13.919  1.00  0.00     0.098 A 
BRANCH   5   9
ATOM      9  C   UNL A   1      12.635   5.456  10.001  1.00  0.00     0.018 C 
ATOM     10  C   UNL A   1      12.915   6.161   8.909  1.00  0.00     0.085 C 
BRANCH  10  11
ATOM     11  C   UNL A   1      12.554   5.598   7.593  1.00  0.00     0.198 C 
ATOM     12  O   UNL A   1      12.627   4.248   7.664  1.00  0.00    -0.645 OA
ATOM     13  O   UNL A   1      12.240   6.226   6.596  1.00  0.00    -0.645 OA
ENDBRANCH  10  11
ENDBRANCH   5   9
BRANCH   8  14
ATOM     14  O   UNL A   1      13.800   7.276  15.173  1.00  0.00    -0.358 OA
ATOM     15  H   UNL A   1      14.649   7.122  15.538  1.00  0.00     0.217 HD
ENDBRANCH   8  14
ENDBRANCH   1   3
TORSDOF 4
ENDMDL
MODEL 2
REMARK VINA RESULT:      -6.8      3.358      4.000
REMARK  4 active torsions:
REMARK  status: ('A' for Active; 'I' for Inactive)
REMARK    1  A    between atoms: O_1  and  C_8 
REMARK    2  A    between atoms: O_2  and  C_9 
REMARK    3  A    between atoms: C_5  and  C_11 
REMARK    4  A    between atoms: C_12  and  C_13 
ROOT
ATOM      1  O   UNL A   1      11.314   5.020  11.456  1.00  0.00    -0.358 OA
ATOM      2  H   UNL A   1      11.125   4.180  11.085  1.00  0.00     0.217 HD
ENDROOT
BRANCH   1   3
ATOM      3  C   UNL A   1      12.561   5.288  11.931  1.00  0.00     0.099 A 
ATOM      4  C   UNL A   1      13.535   5.786  11.065  1.00  0.00     0.050 A 
ATOM      5  C   UNL A   1      14.816   6.066  11.541  1.00  0.00    -0.033 A 
ATOM      6  C   UNL A   1      15.122   5.851  12.885  1.00  0.00     0.014 A 
ATOM      7  C   UNL A   1      14.149   5.354  13.751  1.00  0.00     0.040 A 
ATOM      8  C   UNL A   1      12.869   5.073  13.275  1.00  0.00     0.098 A 
BRANCH   5   9
ATOM      9  C   UNL A   1      15.830   6.583  10.637  1.00  0.00     0.018 C 
ATOM     10  C   UNL A   1      17.134   6.427  10.851  1.00  0.00     0.085 C 
BRANCH  10  11
ATOM     11  C   UNL A   1      18.083   7.006   9.879  1.00  0.00     0.198 C 
ATOM     12  O   UNL A   1      18.423   6.050   8.983  1.00  0.00    -0.645 OA
ATOM     13  O   UNL A   1      18.502   8.152   9.868  1.00  0.00    -0.645 OA
ENDBRANCH  10  11
ENDBRANCH   5   9
BRANCH   8  14
ATOM     14  O   UNL A   1      11.926   4.590  14.131  1.00  0.00    -0.358 OA
ATOM     15  H   UNL A   1      12.171   4.328  14.997  1.00  0.00     0.217 HD
ENDBRANCH   8  14
ENDBRANCH   1   3
TORSDOF 4
ENDMDL
MODEL 3
REMARK VINA RESULT:      -6.8      2.864      3.960
REMARK  4 active torsions:
REMARK  status: ('A' for Active; 'I' for Inactive)
REMARK    1  A    between atoms: O_1  and  C_8 
REMARK    2  A    between atoms: O_2  and  C_9 
REMARK    3  A    between atoms: C_5  and  C_11 
REMARK    4  A    between atoms: C_12  and  C_13 
ROOT
ATOM      1  O   UNL A   1      13.671   7.275  15.308  1.00  0.00    -0.358 OA
ATOM      2  H   UNL A   1      13.039   7.847  15.697  1.00  0.00     0.217 HD
ENDROOT
BRANCH   1   3
ATOM      3  C   UNL A   1      13.503   6.847  14.026  1.00  0.00     0.099 A 
ATOM      4  C   UNL A   1      14.618   6.683  13.204  1.00  0.00     0.050 A 
ATOM      5  C   UNL A   1      14.459   6.244  11.890  1.00  0.00    -0.033 A 
ATOM      6  C   UNL A   1      13.183   5.966  11.398  1.00  0.00     0.014 A 
ATOM      7  C   UNL A   1      12.068   6.128  12.220  1.00  0.00     0.040 A 
ATOM      8  C   UNL A   1      12.228   6.569  13.534  1.00  0.00     0.098 A 
BRANCH   5   9
ATOM      9  C   UNL A   1      15.621   6.075  11.033  1.00  0.00     0.018 C 
ATOM     10  C   UNL A   1      16.836   5.814  11.510  1.00  0.00     0.085 C 
BRANCH  10  11
ATOM     11  C   UNL A   1      17.954   5.678  10.555  1.00  0.00     0.198 C 
ATOM     12  O   UNL A   1      19.011   5.130  11.199  1.00  0.00    -0.645 OA
ATOM     13  O   UNL A   1      17.947   6.000   9.378  1.00  0.00    -0.645 OA
ENDBRANCH  10  11
ENDBRANCH   5   9
BRANCH   8  14
ATOM     14  O   UNL A   1      11.131   6.722  14.327  1.00  0.00    -0.358 OA
ATOM     15  H   UNL A   1      11.069   6.253  15.136  1.00  0.00     0.217 HD
ENDBRANCH   8  14
ENDBRANCH   1   3
TORSDOF 4
ENDMDL
MODEL 4
REMARK VINA RESULT:      -6.6      1.672      5.922
REMARK  4 active torsions:
REMARK  status: ('A' for Active; 'I' for Inactive)
REMARK    1  A    between atoms: O_1  and  C_8 
REMARK    2  A    between atoms: O_2  and  C_9 
REMARK    3  A    between atoms: C_5  and  C_11 
REMARK    4  A    between atoms: C_12  and  C_13 
ROOT
ATOM      1  O   UNL A   1      15.886   6.128   9.606  1.00  0.00    -0.358 OA
ATOM      2  H   UNL A   1      16.061   6.056   8.689  1.00  0.00     0.217 HD
ENDROOT
BRANCH   1   3
ATOM      3  C   UNL A   1      14.602   6.098  10.058  1.00  0.00     0.099 A 
ATOM      4  C   UNL A   1      14.355   6.141  11.431  1.00  0.00     0.050 A 
ATOM      5  C   UNL A   1      13.043   6.112  11.905  1.00  0.00    -0.033 A 
ATOM      6  C   UNL A   1      11.979   6.044  11.007  1.00  0.00     0.014 A 
ATOM      7  C   UNL A   1      12.225   6.003   9.635  1.00  0.00     0.040 A 
ATOM      8  C   UNL A   1      13.536   6.030   9.161  1.00  0.00     0.098 A 
BRANCH   5   9
ATOM      9  C   UNL A   1      12.787   6.155  13.336  1.00  0.00     0.018 C 
ATOM     10  C   UNL A   1      13.674   6.616  14.214  1.00  0.00     0.085 C 
BRANCH  10  11
ATOM     11  C   UNL A   1      13.321   6.599  15.648  1.00  0.00     0.198 C 
ATOM     12  O   UNL A   1      11.986   6.792  15.769  1.00  0.00    -0.645 OA
ATOM     13  O   UNL A   1      14.089   6.440  16.582  1.00  0.00    -0.645 OA
ENDBRANCH  10  11
ENDBRANCH   5   9
BRANCH   8  14
ATOM     14  O   UNL A   1      13.764   5.990   7.819  1.00  0.00    -0.358 OA
ATOM     15  H   UNL A   1      13.419   6.663   7.265  1.00  0.00     0.217 HD
ENDBRANCH   8  14
ENDBRANCH   1   3
TORSDOF 4
ENDMDL
MODEL 5
REMARK VINA RESULT:      -6.6      0.865      1.853
REMARK  4 active torsions:
REMARK  status: ('A' for Active; 'I' for Inactive)
REMARK    1  A    between atoms: O_1  and  C_8 
REMARK    2  A    between atoms: O_2  and  C_9 
REMARK    3  A    between atoms: C_5  and  C_11 
REMARK    4  A    between atoms: C_12  and  C_13 
ROOT
ATOM      1  O   UNL A   1      15.302   6.460  14.628  1.00  0.00    -0.358 OA
ATOM      2  H   UNL A   1      15.445   5.762  15.236  1.00  0.00     0.217 HD
ENDROOT
BRANCH   1   3
ATOM      3  C   UNL A   1      14.215   6.439  13.808  1.00  0.00     0.099 A 
ATOM      4  C   UNL A   1      14.376   6.104  12.463  1.00  0.00     0.050 A 
ATOM      5  C   UNL A   1      13.269   6.076  11.614  1.00  0.00    -0.033 A 
ATOM      6  C   UNL A   1      12.002   6.382  12.111  1.00  0.00     0.014 A 
ATOM      7  C   UNL A   1      11.842   6.716  13.456  1.00  0.00     0.040 A 
ATOM      8  C   UNL A   1      12.948   6.744  14.304  1.00  0.00     0.098 A 
BRANCH   5   9
ATOM      9  C   UNL A   1      13.437   5.729  10.212  1.00  0.00     0.018 C 
ATOM     10  C   UNL A   1      12.575   6.101   9.269  1.00  0.00     0.085 C 
BRANCH  10  11
ATOM     11  C   UNL A   1      12.829   5.681   7.876  1.00  0.00     0.198 C 
ATOM     12  O   UNL A   1      12.578   4.354   7.771  1.00  0.00    -0.645 OA
ATOM     13  O   UNL A   1      13.203   6.393   6.960  1.00  0.00    -0.645 OA
ENDBRANCH  10  11
ENDBRANCH   5   9
BRANCH   8  14
ATOM     14  O   UNL A   1      12.779   7.070  15.615  1.00  0.00    -0.358 OA
ATOM     15  H   UNL A   1      13.177   6.547  16.283  1.00  0.00     0.217 HD
ENDBRANCH   8  14
ENDBRANCH   1   3
TORSDOF 4
ENDMDL
MODEL 6
REMARK VINA RESULT:      -6.5      2.751      5.430
REMARK  4 active torsions:
REMARK  status: ('A' for Active; 'I' for Inactive)
REMARK    1  A    between atoms: O_1  and  C_8 
REMARK    2  A    between atoms: O_2  and  C_9 
REMARK    3  A    between atoms: C_5  and  C_11 
REMARK    4  A    between atoms: C_12  and  C_13 
ROOT
ATOM      1  O   UNL A   1      11.060   5.045  11.166  1.00  0.00    -0.358 OA
ATOM      2  H   UNL A   1      10.446   4.866  10.481  1.00  0.00     0.217 HD
ENDROOT
BRANCH   1   3
ATOM      3  C   UNL A   1      12.329   5.430  10.859  1.00  0.00     0.099 A 
ATOM      4  C   UNL A   1      13.311   5.414  11.850  1.00  0.00     0.050 A 
ATOM      5  C   UNL A   1      14.616   5.805  11.546  1.00  0.00    -0.033 A 
ATOM      6  C   UNL A   1      14.939   6.208  10.251  1.00  0.00     0.014 A 
ATOM      7  C   UNL A   1      13.957   6.223   9.260  1.00  0.00     0.040 A 
ATOM      8  C   UNL A   1      12.653   5.834   9.564  1.00  0.00     0.098 A 
BRANCH   5   9
ATOM      9  C   UNL A   1      15.638   5.790  12.580  1.00  0.00     0.018 C 
ATOM     10  C   UNL A   1      16.939   5.739  12.307  1.00  0.00     0.085 C 
BRANCH  10  11
ATOM     11  C   UNL A   1      17.895   5.711  13.432  1.00  0.00     0.198 C 
ATOM     12  O   UNL A   1      18.675   4.611  13.312  1.00  0.00    -0.645 OA
ATOM     13  O   UNL A   1      17.983   6.531  14.330  1.00  0.00    -0.645 OA
ENDBRANCH  10  11
ENDBRANCH   5   9
BRANCH   8  14
ATOM     14  O   UNL A   1      11.704   5.851   8.587  1.00  0.00    -0.358 OA
ATOM     15  H   UNL A   1      11.320   5.048   8.292  1.00  0.00     0.217 HD
ENDBRANCH   8  14
ENDBRANCH   1   3
TORSDOF 4
ENDMDL
MODEL 7
REMARK VINA RESULT:      -6.5      3.482      4.550
REMARK  4 active torsions:
REMARK  status: ('A' for Active; 'I' for Inactive)
REMARK    1  A    between atoms: O_1  and  C_8 
REMARK    2  A    between atoms: O_2  and  C_9 
REMARK    3  A    between atoms: C_5  and  C_11 
REMARK    4  A    between atoms: C_12  and  C_13 
ROOT
ATOM      1  O   UNL A   1      12.757   5.117  13.383  1.00  0.00    -0.358 OA
ATOM      2  H   UNL A   1      12.734   4.223  13.663  1.00  0.00     0.217 HD
ENDROOT
BRANCH   1   3
ATOM      3  C   UNL A   1      13.052   5.418  12.089  1.00  0.00     0.099 A 
ATOM      4  C   UNL A   1      14.319   5.906  11.768  1.00  0.00     0.050 A 
ATOM      5  C   UNL A   1      14.633   6.216  10.444  1.00  0.00    -0.033 A 
ATOM      6  C   UNL A   1      13.680   6.037   9.441  1.00  0.00     0.014 A 
ATOM      7  C   UNL A   1      12.413   5.548   9.762  1.00  0.00     0.040 A 
ATOM      8  C   UNL A   1      12.100   5.239  11.086  1.00  0.00     0.098 A 
BRANCH   5   9
ATOM      9  C   UNL A   1      15.953   6.726  10.110  1.00  0.00     0.018 C 
ATOM     10  C   UNL A   1      17.071   6.055  10.369  1.00  0.00     0.085 C 
BRANCH  10  11
ATOM     11  C   UNL A   1      18.364   6.670  10.005  1.00  0.00     0.198 C 
ATOM     12  O   UNL A   1      18.292   8.002  10.240  1.00  0.00    -0.645 OA
ATOM     13  O   UNL A   1      19.344   6.093   9.565  1.00  0.00    -0.645 OA
ENDBRANCH  10  11
ENDBRANCH   5   9
BRANCH   8  14
ATOM     14  O   UNL A   1      10.860   4.761  11.386  1.00  0.00    -0.358 OA
ATOM     15  H   UNL A   1      10.592   4.684  12.281  1.00  0.00     0.217 HD
ENDBRANCH   8  14
ENDBRANCH   1   3
TORSDOF 4
ENDMDL
MODEL 8
REMARK VINA RESULT:      -6.5      2.946      3.901
REMARK  4 active torsions:
REMARK  status: ('A' for Active; 'I' for Inactive)
REMARK    1  A    between atoms: O_1  and  C_8 
REMARK    2  A    between atoms: O_2  and  C_9 
REMARK    3  A    between atoms: C_5  and  C_11 
REMARK    4  A    between atoms: C_12  and  C_13 
ROOT
ATOM      1  O   UNL A   1      11.401   6.031  12.194  1.00  0.00    -0.358 OA
ATOM      2  H   UNL A   1      10.728   5.416  12.411  1.00  0.00     0.217 HD
ENDROOT
BRANCH   1   3
ATOM      3  C   UNL A   1      12.555   6.060  12.917  1.00  0.00     0.099 A 
ATOM      4  C   UNL A   1      13.779   5.934  12.261  1.00  0.00     0.050 A 
ATOM      5  C   UNL A   1      14.968   5.965  12.990  1.00  0.00    -0.033 A 
ATOM      6  C   UNL A   1      14.932   6.123  14.375  1.00  0.00     0.014 A 
ATOM      7  C   UNL A   1      13.707   6.250  15.031  1.00  0.00     0.040 A 
ATOM      8  C   UNL A   1      12.519   6.219  14.302  1.00  0.00     0.098 A 
BRANCH   5   9
ATOM      9  C   UNL A   1      16.244   5.832  12.306  1.00  0.00     0.018 C 
ATOM     10  C   UNL A   1      16.374   5.968  10.989  1.00  0.00     0.085 C 
BRANCH  10  11
ATOM     11  C   UNL A   1      17.713   5.797  10.391  1.00  0.00     0.198 C 
ATOM     12  O   UNL A   1      18.579   5.426  11.364  1.00  0.00    -0.645 OA
ATOM     13  O   UNL A   1      18.010   5.957   9.219  1.00  0.00    -0.645 OA
ENDBRANCH  10  11
ENDBRANCH   5   9
BRANCH   8  14
ATOM     14  O   UNL A   1      11.330   6.345  14.953  1.00  0.00    -0.358 OA
ATOM     15  H   UNL A   1      11.312   6.635  15.844  1.00  0.00     0.217 HD
ENDBRANCH   8  14
ENDBRANCH   1   3
TORSDOF 4
ENDMDL
MODEL 9
REMARK VINA RESULT:      -6.4      2.931      3.603
REMARK  4 active torsions:
REMARK  status: ('A' for Active; 'I' for Inactive)
REMARK    1  A    between atoms: O_1  and  C_8 
REMARK    2  A    between atoms: O_2  and  C_9 
REMARK    3  A    between atoms: C_5  and  C_11 
REMARK    4  A    between atoms: C_12  and  C_13 
ROOT
ATOM      1  O   UNL A   1      10.971   6.850  14.472  1.00  0.00    -0.358 OA
ATOM      2  H   UNL A   1      10.335   6.163  14.516  1.00  0.00     0.217 HD
ENDROOT
BRANCH   1   3
ATOM      3  C   UNL A   1      12.283   6.578  14.718  1.00  0.00     0.099 A 
ATOM      4  C   UNL A   1      13.128   6.254  13.657  1.00  0.00     0.050 A 
ATOM      5  C   UNL A   1      14.474   5.976  13.897  1.00  0.00    -0.033 A 
ATOM      6  C   UNL A   1      14.975   6.025  15.198  1.00  0.00     0.014 A 
ATOM      7  C   UNL A   1      14.130   6.351  16.258  1.00  0.00     0.040 A 
ATOM      8  C   UNL A   1      12.784   6.627  16.018  1.00  0.00     0.098 A 
BRANCH   5   9
ATOM      9  C   UNL A   1      15.355   5.636  12.791  1.00  0.00     0.018 C 
ATOM     10  C   UNL A   1      15.579   6.457  11.769  1.00  0.00     0.085 C 
BRANCH  10  11
ATOM     11  C   UNL A   1      16.478   6.008  10.686  1.00  0.00     0.198 C 
ATOM     12  O   UNL A   1      15.786   6.003   9.522  1.00  0.00    -0.645 OA
ATOM     13  O   UNL A   1      17.649   5.691  10.801  1.00  0.00    -0.645 OA
ENDBRANCH  10  11
ENDBRANCH   5   9
BRANCH   8  14
ATOM     14  O   UNL A   1      11.969   6.945  17.062  1.00  0.00    -0.358 OA
ATOM     15  H   UNL A   1      12.117   6.564  17.905  1.00  0.00     0.217 HD
ENDBRANCH   8  14
ENDBRANCH   1   3
TORSDOF 4
ENDMDL
