MODEL 1
REMARK VINA RESULT:      -7.3      0.000      0.000
REMARK  4 active torsions:
REMARK  status: ('A' for Active; 'I' for Inactive)
REMARK    1  A    between atoms: O_1  and  C_8 
REMARK    2  A    between atoms: O_2  and  C_9 
REMARK    3  A    between atoms: C_5  and  C_11 
REMARK    4  A    between atoms: C_12  and  C_13 
ROOT
ATOM      1  O   UNL A   1      11.187   6.755  14.442  1.00  0.00    -0.358 OA
ATOM      2  H   UNL A   1      10.713   6.019  14.778  1.00  0.00     0.217 HD
ENDROOT
BRANCH   1   3
ATOM      3  C   UNL A   1      12.197   6.564  13.549  1.00  0.00     0.099 A 
ATOM      4  C   UNL A   1      11.900   6.118  12.261  1.00  0.00     0.050 A 
ATOM      5  C   UNL A   1      12.926   5.920  11.336  1.00  0.00    -0.033 A 
ATOM      6  C   UNL A   1      14.249   6.171  11.700  1.00  0.00     0.014 A 
ATOM      7  C   UNL A   1      14.546   6.618  12.988  1.00  0.00     0.040 A 
ATOM      8  C   UNL A   1      13.520   6.814  13.911  1.00  0.00     0.098 A 
BRANCH   5   9
ATOM      9  C   UNL A   1      12.616   5.454   9.995  1.00  0.00     0.018 C 
ATOM     10  C   UNL A   1      12.930   6.143   8.901  1.00  0.00     0.085 C 
BRANCH  10  11
ATOM     11  C   UNL A   1      12.554   5.588   7.585  1.00  0.00     0.198 C 
ATOM     12  O   UNL A   1      12.636   4.238   7.644  1.00  0.00    -0.645 OA
ATOM     13  O   UNL A   1      12.222   6.223   6.598  1.00  0.00    -0.645 OA
ENDBRANCH  10  11
ENDBRANCH   5   9
BRANCH   8  14
ATOM     14  O   UNL A   1      13.823   7.252  15.165  1.00  0.00    -0.358 OA
ATOM     15  H   UNL A   1      14.248   6.678  15.772  1.00  0.00     0.217 HD
ENDBRANCH   8  14
ENDBRANCH   1   3
TORSDOF 4
ENDMDL
MODEL 2
REMARK VINA RESULT:      -6.8      3.292      4.004
REMARK  4 active torsions:
REMARK  status: ('A' for Active; 'I' for Inactive)
REMARK    1  A    between atoms: O_1  and  C_8 
REMARK    2  A    between atoms: O_2  and  C_9 
REMARK    3  A    between atoms: C_5  and  C_11 
REMARK    4  A    between atoms: C_12  and  C_13 
ROOT
ATOM      1  O   UNL A   1      11.198   5.291  11.224  1.00  0.00    -0.358 OA
ATOM      2  H   UNL A   1      10.565   4.938  11.818  1.00  0.00     0.217 HD
ENDROOT
BRANCH   1   3
ATOM      3  C   UNL A   1      12.393   5.746  11.693  1.00  0.00     0.099 A 
ATOM      4  C   UNL A   1      13.499   5.770  10.844  1.00  0.00     0.050 A 
ATOM      5  C   UNL A   1      14.728   6.236  11.313  1.00  0.00    -0.033 A 
ATOM      6  C   UNL A   1      14.850   6.678  12.630  1.00  0.00     0.014 A 
ATOM      7  C   UNL A   1      13.743   6.654  13.478  1.00  0.00     0.040 A 
ATOM      8  C   UNL A   1      12.515   6.188  13.010  1.00  0.00     0.098 A 
BRANCH   5   9
ATOM      9  C   UNL A   1      15.882   6.259  10.428  1.00  0.00     0.018 C 
ATOM     10  C   UNL A   1      17.011   6.893  10.732  1.00  0.00     0.085 C 
BRANCH  10  11
ATOM     11  C   UNL A   1      18.118   6.870   9.756  1.00  0.00     0.198 C 
ATOM     12  O   UNL A   1      18.724   8.082   9.758  1.00  0.00    -0.645 OA
ATOM     13  O   UNL A   1      18.448   5.929   9.054  1.00  0.00    -0.645 OA
ENDBRANCH  10  11
ENDBRANCH   5   9
BRANCH   8  14
ATOM     14  O   UNL A   1      11.441   6.171  13.847  1.00  0.00    -0.358 OA
ATOM     15  H   UNL A   1      11.475   6.633  14.662  1.00  0.00     0.217 HD
ENDBRANCH   8  14
ENDBRANCH   1   3
TORSDOF 4
ENDMDL
MODEL 3
REMARK VINA RESULT:      -6.8      2.853      3.948
REMARK  4 active torsions:
REMARK  status: ('A' for Active; 'I' for Inactive)
REMARK    1  A    between atoms: O_1  and  C_8 
REMARK    2  A    between atoms: O_2  and  C_9 
REMARK    3  A    between atoms: C_5  and  C_11 
REMARK    4  A    between atoms: C_12  and  C_13 
ROOT
ATOM      1  O   UNL A   1      13.677   7.287  15.306  1.00  0.00    -0.358 OA
ATOM      2  H   UNL A   1      14.336   7.925  15.498  1.00  0.00     0.217 HD
ENDROOT
BRANCH   1   3
ATOM      3  C   UNL A   1      13.501   6.854  14.027  1.00  0.00     0.099 A 
ATOM      4  C   UNL A   1      14.611   6.687  13.199  1.00  0.00     0.050 A 
ATOM      5  C   UNL A   1      14.442   6.242  11.888  1.00  0.00    -0.033 A 
ATOM      6  C   UNL A   1      13.164   5.963  11.405  1.00  0.00     0.014 A 
ATOM      7  C   UNL A   1      12.054   6.129  12.234  1.00  0.00     0.040 A 
ATOM      8  C   UNL A   1      12.223   6.575  13.544  1.00  0.00     0.098 A 
BRANCH   5   9
ATOM      9  C   UNL A   1      15.600   6.069  11.025  1.00  0.00     0.018 C 
ATOM     10  C   UNL A   1      16.824   5.851  11.496  1.00  0.00     0.085 C 
BRANCH  10  11
ATOM     11  C   UNL A   1      17.935   5.707  10.533  1.00  0.00     0.198 C 
ATOM     12  O   UNL A   1      18.986   5.135  11.167  1.00  0.00    -0.645 OA
ATOM     13  O   UNL A   1      17.927   6.040   9.361  1.00  0.00    -0.645 OA
ENDBRANCH  10  11
ENDBRANCH   5   9
BRANCH   8  14
ATOM     14  O   UNL A   1      11.131   6.733  14.344  1.00  0.00    -0.358 OA
ATOM     15  H   UNL A   1      11.195   6.561  15.263  1.00  0.00     0.217 HD
ENDBRANCH   8  14
ENDBRANCH   1   3
TORSDOF 4
ENDMDL
MODEL 4
REMARK VINA RESULT:      -6.8      3.176      3.969
REMARK  4 active torsions:
REMARK  status: ('A' for Active; 'I' for Inactive)
REMARK    1  A    between atoms: O_1  and  C_8 
REMARK    2  A    between atoms: O_2  and  C_9 
REMARK    3  A    between atoms: C_5  and  C_11 
REMARK    4  A    between atoms: C_12  and  C_13 
ROOT
ATOM      1  O   UNL A   1      11.123   5.284  11.489  1.00  0.00    -0.358 OA
ATOM      2  H   UNL A   1      10.583   5.826  10.949  1.00  0.00     0.217 HD
ENDROOT
BRANCH   1   3
ATOM      3  C   UNL A   1      12.310   5.758  11.958  1.00  0.00     0.099 A 
ATOM      4  C   UNL A   1      13.442   5.699  11.145  1.00  0.00     0.050 A 
ATOM      5  C   UNL A   1      14.664   6.184  11.614  1.00  0.00    -0.033 A 
ATOM      6  C   UNL A   1      14.752   6.730  12.894  1.00  0.00     0.014 A 
ATOM      7  C   UNL A   1      13.620   6.789  13.707  1.00  0.00     0.040 A 
ATOM      8  C   UNL A   1      12.399   6.304  13.238  1.00  0.00     0.098 A 
BRANCH   5   9
ATOM      9  C   UNL A   1      15.844   6.121  10.767  1.00  0.00     0.018 C 
ATOM     10  C   UNL A   1      17.046   5.786  11.229  1.00  0.00     0.085 C 
BRANCH  10  11
ATOM     11  C   UNL A   1      18.184   5.769  10.287  1.00  0.00     0.198 C 
ATOM     12  O   UNL A   1      19.222   5.127  10.874  1.00  0.00    -0.645 OA
ATOM     13  O   UNL A   1      18.205   6.247   9.166  1.00  0.00    -0.645 OA
ENDBRANCH  10  11
ENDBRANCH   5   9
BRANCH   8  14
ATOM     14  O   UNL A   1      11.300   6.369  14.040  1.00  0.00    -0.358 OA
ATOM     15  H   UNL A   1      10.850   5.584  14.283  1.00  0.00     0.217 HD
ENDBRANCH   8  14
ENDBRANCH   1   3
TORSDOF 4
ENDMDL
MODEL 5
REMARK VINA RESULT:      -6.6      3.480      4.418
REMARK  4 active torsions:
REMARK  status: ('A' for Active; 'I' for Inactive)
REMARK    1  A    between atoms: O_1  and  C_8 
REMARK    2  A    between atoms: O_2  and  C_9 
REMARK    3  A    between atoms: C_5  and  C_11 
REMARK    4  A    between atoms: C_12  and  C_13 
ROOT
ATOM      1  O   UNL A   1      12.392   5.227  13.616  1.00  0.00    -0.358 OA
ATOM      2  H   UNL A   1      12.210   5.922  14.218  1.00  0.00     0.217 HD
ENDROOT
BRANCH   1   3
ATOM      3  C   UNL A   1      12.928   5.505  12.395  1.00  0.00     0.099 A 
ATOM      4  C   UNL A   1      14.225   6.013  12.313  1.00  0.00     0.050 A 
ATOM      5  C   UNL A   1      14.784   6.300  11.068  1.00  0.00    -0.033 A 
ATOM      6  C   UNL A   1      14.047   6.078   9.905  1.00  0.00     0.014 A 
ATOM      7  C   UNL A   1      12.750   5.570   9.987  1.00  0.00     0.040 A 
ATOM      8  C   UNL A   1      12.191   5.284  11.232  1.00  0.00     0.098 A 
BRANCH   5   9
ATOM      9  C   UNL A   1      16.135   6.830  10.983  1.00  0.00     0.018 C 
ATOM     10  C   UNL A   1      16.837   6.839   9.853  1.00  0.00     0.085 C 
BRANCH  10  11
ATOM     11  C   UNL A   1      18.208   7.385   9.878  1.00  0.00     0.198 C 
ATOM     12  O   UNL A   1      19.069   6.415   9.486  1.00  0.00    -0.645 OA
ATOM     13  O   UNL A   1      18.533   8.517  10.195  1.00  0.00    -0.645 OA
ENDBRANCH  10  11
ENDBRANCH   5   9
BRANCH   8  14
ATOM     14  O   UNL A   1      10.925   4.787  11.299  1.00  0.00    -0.358 OA
ATOM     15  H   UNL A   1      10.743   3.923  10.985  1.00  0.00     0.217 HD
ENDBRANCH   8  14
ENDBRANCH   1   3
TORSDOF 4
ENDMDL
MODEL 6
REMARK VINA RESULT:      -6.5      2.749      5.435
REMARK  4 active torsions:
REMARK  status: ('A' for Active; 'I' for Inactive)
REMARK    1  A    between atoms: O_1  and  C_8 
REMARK    2  A    between atoms: O_2  and  C_9 
REMARK    3  A    between atoms: C_5  and  C_11 
REMARK    4  A    between atoms: C_12  and  C_13 
ROOT
ATOM      1  O   UNL A   1      11.069   5.068  11.154  1.00  0.00    -0.358 OA
ATOM      2  H   UNL A   1      10.495   5.675  11.578  1.00  0.00     0.217 HD
ENDROOT
BRANCH   1   3
ATOM      3  C   UNL A   1      12.338   5.442  10.834  1.00  0.00     0.099 A 
ATOM      4  C   UNL A   1      13.323   5.447  11.822  1.00  0.00     0.050 A 
ATOM      5  C   UNL A   1      14.628   5.826  11.506  1.00  0.00    -0.033 A 
ATOM      6  C   UNL A   1      14.948   6.199  10.200  1.00  0.00     0.014 A 
ATOM      7  C   UNL A   1      13.963   6.194   9.212  1.00  0.00     0.040 A 
ATOM      8  C   UNL A   1      12.659   5.816   9.529  1.00  0.00     0.098 A 
BRANCH   5   9
ATOM      9  C   UNL A   1      15.653   5.832  12.536  1.00  0.00     0.018 C 
ATOM     10  C   UNL A   1      16.952   5.742  12.262  1.00  0.00     0.085 C 
BRANCH  10  11
ATOM     11  C   UNL A   1      17.912   5.740  13.385  1.00  0.00     0.198 C 
ATOM     12  O   UNL A   1      18.822   4.759  13.175  1.00  0.00    -0.645 OA
ATOM     13  O   UNL A   1      17.903   6.487  14.348  1.00  0.00    -0.645 OA
ENDBRANCH  10  11
ENDBRANCH   5   9
BRANCH   8  14
ATOM     14  O   UNL A   1      11.707   5.813   8.555  1.00  0.00    -0.358 OA
ATOM     15  H   UNL A   1      10.962   6.377   8.627  1.00  0.00     0.217 HD
ENDBRANCH   8  14
ENDBRANCH   1   3
TORSDOF 4
ENDMDL
MODEL 7
REMARK VINA RESULT:      -6.5      1.673      5.921
REMARK  4 active torsions:
REMARK  status: ('A' for Active; 'I' for Inactive)
REMARK    1  A    between atoms: O_1  and  C_8 
REMARK    2  A    between atoms: O_2  and  C_9 
REMARK    3  A    between atoms: C_5  and  C_11 
REMARK    4  A    between atoms: C_12  and  C_13 
ROOT
ATOM      1  O   UNL A   1      15.864   6.192   9.606  1.00  0.00    -0.358 OA
ATOM      2  H   UNL A   1      16.272   5.444   9.215  1.00  0.00     0.217 HD
ENDROOT
BRANCH   1   3
ATOM      3  C   UNL A   1      14.581   6.110  10.055  1.00  0.00     0.099 A 
ATOM      4  C   UNL A   1      14.325   6.190  11.423  1.00  0.00     0.050 A 
ATOM      5  C   UNL A   1      13.014   6.110  11.895  1.00  0.00    -0.033 A 
ATOM      6  C   UNL A   1      11.960   5.952  10.996  1.00  0.00     0.014 A 
ATOM      7  C   UNL A   1      12.215   5.874   9.627  1.00  0.00     0.040 A 
ATOM      8  C   UNL A   1      13.526   5.953   9.157  1.00  0.00     0.098 A 
BRANCH   5   9
ATOM      9  C   UNL A   1      12.749   6.191  13.322  1.00  0.00     0.018 C 
ATOM     10  C   UNL A   1      13.688   6.496  14.214  1.00  0.00     0.085 C 
BRANCH  10  11
ATOM     11  C   UNL A   1      13.317   6.535  15.643  1.00  0.00     0.198 C 
ATOM     12  O   UNL A   1      11.995   6.811  15.741  1.00  0.00    -0.645 OA
ATOM     13  O   UNL A   1      14.062   6.353  16.591  1.00  0.00    -0.645 OA
ENDBRANCH  10  11
ENDBRANCH   5   9
BRANCH   8  14
ATOM     14  O   UNL A   1      13.762   5.876   7.817  1.00  0.00    -0.358 OA
ATOM     15  H   UNL A   1      13.926   6.657   7.325  1.00  0.00     0.217 HD
ENDBRANCH   8  14
ENDBRANCH   1   3
TORSDOF 4
ENDMDL
MODEL 8
REMARK VINA RESULT:      -6.5      0.801      1.833
REMARK  4 active torsions:
REMARK  status: ('A' for Active; 'I' for Inactive)
REMARK    1  A    between atoms: O_1  and  C_8 
REMARK    2  A    between atoms: O_2  and  C_9 
REMARK    3  A    between atoms: C_5  and  C_11 
REMARK    4  A    between atoms: C_12  and  C_13 
ROOT
ATOM      1  O   UNL A   1      15.384   6.430  14.425  1.00  0.00    -0.358 OA
ATOM      2  H   UNL A   1      16.216   6.616  14.038  1.00  0.00     0.217 HD
ENDROOT
BRANCH   1   3
ATOM      3  C   UNL A   1      14.261   6.420  13.655  1.00  0.00     0.099 A 
ATOM      4  C   UNL A   1      14.360   6.104  12.300  1.00  0.00     0.050 A 
ATOM      5  C   UNL A   1      13.216   6.089  11.501  1.00  0.00    -0.033 A 
ATOM      6  C   UNL A   1      11.973   6.387  12.059  1.00  0.00     0.014 A 
ATOM      7  C   UNL A   1      11.874   6.701  13.414  1.00  0.00     0.040 A 
ATOM      8  C   UNL A   1      13.018   6.717  14.212  1.00  0.00     0.098 A 
BRANCH   5   9
ATOM      9  C   UNL A   1      13.320   5.762  10.088  1.00  0.00     0.018 C 
ATOM     10  C   UNL A   1      12.390   6.100   9.199  1.00  0.00     0.085 C 
BRANCH  10  11
ATOM     11  C   UNL A   1      12.585   5.705   7.790  1.00  0.00     0.198 C 
ATOM     12  O   UNL A   1      12.624   4.353   7.720  1.00  0.00    -0.645 OA
ATOM     13  O   UNL A   1      12.694   6.455   6.834  1.00  0.00    -0.645 OA
ENDBRANCH  10  11
ENDBRANCH   5   9
BRANCH   8  14
ATOM     14  O   UNL A   1      12.907   7.025  15.534  1.00  0.00    -0.358 OA
ATOM     15  H   UNL A   1      13.463   7.678  15.911  1.00  0.00     0.217 HD
ENDBRANCH   8  14
ENDBRANCH   1   3
TORSDOF 4
ENDMDL
MODEL 9
REMARK VINA RESULT:      -6.5      2.252      3.128
REMARK  4 active torsions:
REMARK  status: ('A' for Active; 'I' for Inactive)
REMARK    1  A    between atoms: O_1  and  C_8 
REMARK    2  A    between atoms: O_2  and  C_9 
REMARK    3  A    between atoms: C_5  and  C_11 
REMARK    4  A    between atoms: C_12  and  C_13 
ROOT
ATOM      1  O   UNL A   1      11.084   6.417  15.144  1.00  0.00    -0.358 OA
ATOM      2  H   UNL A   1      10.623   5.671  15.475  1.00  0.00     0.217 HD
ENDROOT
BRANCH   1   3
ATOM      3  C   UNL A   1      12.445   6.412  15.102  1.00  0.00     0.099 A 
ATOM      4  C   UNL A   1      13.094   6.270  13.875  1.00  0.00     0.050 A 
ATOM      5  C   UNL A   1      14.488   6.265  13.819  1.00  0.00    -0.033 A 
ATOM      6  C   UNL A   1      15.233   6.405  14.990  1.00  0.00     0.014 A 
ATOM      7  C   UNL A   1      14.584   6.548  16.217  1.00  0.00     0.040 A 
ATOM      8  C   UNL A   1      13.190   6.551  16.272  1.00  0.00     0.098 A 
BRANCH   5   9
ATOM      9  C   UNL A   1      15.164   6.115  12.541  1.00  0.00     0.018 C 
ATOM     10  C   UNL A   1      14.560   6.335  11.376  1.00  0.00     0.085 C 
BRANCH  10  11
ATOM     11  C   UNL A   1      15.332   6.137  10.133  1.00  0.00     0.198 C 
ATOM     12  O   UNL A   1      14.467   6.048   9.094  1.00  0.00    -0.645 OA
ATOM     13  O   UNL A   1      16.545   6.064  10.036  1.00  0.00    -0.645 OA
ENDBRANCH  10  11
ENDBRANCH   5   9
BRANCH   8  14
ATOM     14  O   UNL A   1      12.569   6.693  17.476  1.00  0.00    -0.358 OA
ATOM     15  H   UNL A   1      11.680   6.989  17.512  1.00  0.00     0.217 HD
ENDBRANCH   8  14
ENDBRANCH   1   3
TORSDOF 4
ENDMDL
