MODEL 1
REMARK VINA RESULT:      -7.3      0.000      0.000
REMARK  4 active torsions:
REMARK  status: ('A' for Active; 'I' for Inactive)
REMARK    1  A    between atoms: O_1  and  C_8 
REMARK    2  A    between atoms: O_2  and  C_9 
REMARK    3  A    between atoms: C_5  and  C_11 
REMARK    4  A    between atoms: C_12  and  C_13 
ROOT
ATOM      1  O   UNL A   1      11.189   6.756  14.445  1.00  0.00    -0.358 OA
ATOM      2  H   UNL A   1      11.374   7.105  15.295  1.00  0.00     0.217 HD
ENDROOT
BRANCH   1   3
ATOM      3  C   UNL A   1      12.200   6.566  13.552  1.00  0.00     0.099 A 
ATOM      4  C   UNL A   1      11.904   6.120  12.264  1.00  0.00     0.050 A 
ATOM      5  C   UNL A   1      12.931   5.924  11.340  1.00  0.00    -0.033 A 
ATOM      6  C   UNL A   1      14.253   6.176  11.704  1.00  0.00     0.014 A 
ATOM      7  C   UNL A   1      14.549   6.623  12.992  1.00  0.00     0.040 A 
ATOM      8  C   UNL A   1      13.522   6.818  13.916  1.00  0.00     0.098 A 
BRANCH   5   9
ATOM      9  C   UNL A   1      12.622   5.458   9.998  1.00  0.00     0.018 C 
ATOM     10  C   UNL A   1      12.940   6.145   8.905  1.00  0.00     0.085 C 
BRANCH  10  11
ATOM     11  C   UNL A   1      12.565   5.590   7.588  1.00  0.00     0.198 C 
ATOM     12  O   UNL A   1      12.639   4.239   7.649  1.00  0.00    -0.645 OA
ATOM     13  O   UNL A   1      12.240   6.225   6.599  1.00  0.00    -0.645 OA
ENDBRANCH  10  11
ENDBRANCH   5   9
BRANCH   8  14
ATOM     14  O   UNL A   1      13.824   7.255  15.170  1.00  0.00    -0.358 OA
ATOM     15  H   UNL A   1      14.576   6.917  15.616  1.00  0.00     0.217 HD
ENDBRANCH   8  14
ENDBRANCH   1   3
TORSDOF 4
ENDMDL
MODEL 2
REMARK VINA RESULT:      -6.9      3.256      3.999
REMARK  4 active torsions:
REMARK  status: ('A' for Active; 'I' for Inactive)
REMARK    1  A    between atoms: O_1  and  C_8 
REMARK    2  A    between atoms: O_2  and  C_9 
REMARK    3  A    between atoms: C_5  and  C_11 
REMARK    4  A    between atoms: C_12  and  C_13 
ROOT
ATOM      1  O   UNL A   1      11.157   5.349  11.240  1.00  0.00    -0.358 OA
ATOM      2  H   UNL A   1      10.384   5.866  11.353  1.00  0.00     0.217 HD
ENDROOT
BRANCH   1   3
ATOM      3  C   UNL A   1      12.348   5.788  11.732  1.00  0.00     0.099 A 
ATOM      4  C   UNL A   1      13.490   5.716  10.934  1.00  0.00     0.050 A 
ATOM      5  C   UNL A   1      14.715   6.165  11.428  1.00  0.00    -0.033 A 
ATOM      6  C   UNL A   1      14.798   6.687  12.718  1.00  0.00     0.014 A 
ATOM      7  C   UNL A   1      13.656   6.760  13.516  1.00  0.00     0.040 A 
ATOM      8  C   UNL A   1      12.431   6.310  13.022  1.00  0.00     0.098 A 
BRANCH   5   9
ATOM      9  C   UNL A   1      15.906   6.088  10.596  1.00  0.00     0.018 C 
ATOM     10  C   UNL A   1      17.112   5.820  11.088  1.00  0.00     0.085 C 
BRANCH  10  11
ATOM     11  C   UNL A   1      18.260   5.782  10.159  1.00  0.00     0.198 C 
ATOM     12  O   UNL A   1      19.285   5.133  10.762  1.00  0.00    -0.645 OA
ATOM     13  O   UNL A   1      18.299   6.250   9.034  1.00  0.00    -0.645 OA
ENDBRANCH  10  11
ENDBRANCH   5   9
BRANCH   8  14
ATOM     14  O   UNL A   1      11.323   6.388  13.810  1.00  0.00    -0.358 OA
ATOM     15  H   UNL A   1      11.367   6.125  14.709  1.00  0.00     0.217 HD
ENDBRANCH   8  14
ENDBRANCH   1   3
TORSDOF 4
ENDMDL
MODEL 3
REMARK VINA RESULT:      -6.8      2.829      3.940
REMARK  4 active torsions:
REMARK  status: ('A' for Active; 'I' for Inactive)
REMARK    1  A    between atoms: O_1  and  C_8 
REMARK    2  A    between atoms: O_2  and  C_9 
REMARK    3  A    between atoms: C_5  and  C_11 
REMARK    4  A    between atoms: C_12  and  C_13 
ROOT
ATOM      1  O   UNL A   1      13.664   7.202  15.378  1.00  0.00    -0.358 OA
ATOM      2  H   UNL A   1      13.103   6.871  16.052  1.00  0.00     0.217 HD
ENDROOT
BRANCH   1   3
ATOM      3  C   UNL A   1      13.484   6.806  14.088  1.00  0.00     0.099 A 
ATOM      4  C   UNL A   1      14.592   6.649  13.256  1.00  0.00     0.050 A 
ATOM      5  C   UNL A   1      14.420   6.242  11.933  1.00  0.00    -0.033 A 
ATOM      6  C   UNL A   1      13.139   5.992  11.442  1.00  0.00     0.014 A 
ATOM      7  C   UNL A   1      12.030   6.149  12.274  1.00  0.00     0.040 A 
ATOM      8  C   UNL A   1      12.203   6.556  13.596  1.00  0.00     0.098 A 
BRANCH   5   9
ATOM      9  C   UNL A   1      15.576   6.080  11.066  1.00  0.00     0.018 C 
ATOM     10  C   UNL A   1      16.794   5.811  11.531  1.00  0.00     0.085 C 
BRANCH  10  11
ATOM     11  C   UNL A   1      17.904   5.682  10.566  1.00  0.00     0.198 C 
ATOM     12  O   UNL A   1      18.984   5.182  11.212  1.00  0.00    -0.645 OA
ATOM     13  O   UNL A   1      17.875   5.972   9.382  1.00  0.00    -0.645 OA
ENDBRANCH  10  11
ENDBRANCH   5   9
BRANCH   8  14
ATOM     14  O   UNL A   1      11.112   6.704  14.399  1.00  0.00    -0.358 OA
ATOM     15  H   UNL A   1      11.205   7.086  15.249  1.00  0.00     0.217 HD
ENDBRANCH   8  14
ENDBRANCH   1   3
TORSDOF 4
ENDMDL
MODEL 4
REMARK VINA RESULT:      -6.7      3.518      4.500
REMARK  4 active torsions:
REMARK  status: ('A' for Active; 'I' for Inactive)
REMARK    1  A    between atoms: O_1  and  C_8 
REMARK    2  A    between atoms: O_2  and  C_9 
REMARK    3  A    between atoms: C_5  and  C_11 
REMARK    4  A    between atoms: C_12  and  C_13 
ROOT
ATOM      1  O   UNL A   1      12.481   5.035  13.417  1.00  0.00    -0.358 OA
ATOM      2  H   UNL A   1      13.045   4.875  14.149  1.00  0.00     0.217 HD
ENDROOT
BRANCH   1   3
ATOM      3  C   UNL A   1      13.013   5.360  12.207  1.00  0.00     0.099 A 
ATOM      4  C   UNL A   1      14.350   5.748  12.125  1.00  0.00     0.050 A 
ATOM      5  C   UNL A   1      14.906   6.082  10.890  1.00  0.00    -0.033 A 
ATOM      6  C   UNL A   1      14.124   6.026   9.736  1.00  0.00     0.014 A 
ATOM      7  C   UNL A   1      12.787   5.637   9.817  1.00  0.00     0.040 A 
ATOM      8  C   UNL A   1      12.232   5.304  11.053  1.00  0.00     0.098 A 
BRANCH   5   9
ATOM      9  C   UNL A   1      16.300   6.488  10.805  1.00  0.00     0.018 C 
ATOM     10  C   UNL A   1      16.734   7.399   9.939  1.00  0.00     0.085 C 
BRANCH  10  11
ATOM     11  C   UNL A   1      18.174   7.727   9.923  1.00  0.00     0.198 C 
ATOM     12  O   UNL A   1      18.862   6.640   9.501  1.00  0.00    -0.645 OA
ATOM     13  O   UNL A   1      18.678   8.793  10.235  1.00  0.00    -0.645 OA
ENDBRANCH  10  11
ENDBRANCH   5   9
BRANCH   8  14
ATOM     14  O   UNL A   1      10.925   4.925  11.119  1.00  0.00    -0.358 OA
ATOM     15  H   UNL A   1      10.633   4.373  11.818  1.00  0.00     0.217 HD
ENDBRANCH   8  14
ENDBRANCH   1   3
TORSDOF 4
ENDMDL
MODEL 5
REMARK VINA RESULT:      -6.6      2.724      5.448
REMARK  4 active torsions:
REMARK  status: ('A' for Active; 'I' for Inactive)
REMARK    1  A    between atoms: O_1  and  C_8 
REMARK    2  A    between atoms: O_2  and  C_9 
REMARK    3  A    between atoms: C_5  and  C_11 
REMARK    4  A    between atoms: C_12  and  C_13 
ROOT
ATOM      1  O   UNL A   1      11.089   5.018  11.167  1.00  0.00    -0.358 OA
ATOM      2  H   UNL A   1      10.455   5.653  11.438  1.00  0.00     0.217 HD
ENDROOT
BRANCH   1   3
ATOM      3  C   UNL A   1      12.349   5.413  10.835  1.00  0.00     0.099 A 
ATOM      4  C   UNL A   1      13.330   5.483  11.825  1.00  0.00     0.050 A 
ATOM      5  C   UNL A   1      14.625   5.884  11.496  1.00  0.00    -0.033 A 
ATOM      6  C   UNL A   1      14.939   6.213  10.177  1.00  0.00     0.014 A 
ATOM      7  C   UNL A   1      13.959   6.141   9.188  1.00  0.00     0.040 A 
ATOM      8  C   UNL A   1      12.664   5.741   9.517  1.00  0.00     0.098 A 
BRANCH   5   9
ATOM      9  C   UNL A   1      15.647   5.959  12.528  1.00  0.00     0.018 C 
ATOM     10  C   UNL A   1      16.913   5.614  12.315  1.00  0.00     0.085 C 
BRANCH  10  11
ATOM     11  C   UNL A   1      17.869   5.711  13.437  1.00  0.00     0.198 C 
ATOM     12  O   UNL A   1      18.875   4.829  13.227  1.00  0.00    -0.645 OA
ATOM     13  O   UNL A   1      17.785   6.454  14.400  1.00  0.00    -0.645 OA
ENDBRANCH  10  11
ENDBRANCH   5   9
BRANCH   8  14
ATOM     14  O   UNL A   1      11.716   5.674   8.542  1.00  0.00    -0.358 OA
ATOM     15  H   UNL A   1      11.967   5.507   7.655  1.00  0.00     0.217 HD
ENDBRANCH   8  14
ENDBRANCH   1   3
TORSDOF 4
ENDMDL
MODEL 6
REMARK VINA RESULT:      -6.5      1.674      5.926
REMARK  4 active torsions:
REMARK  status: ('A' for Active; 'I' for Inactive)
REMARK    1  A    between atoms: O_1  and  C_8 
REMARK    2  A    between atoms: O_2  and  C_9 
REMARK    3  A    between atoms: C_5  and  C_11 
REMARK    4  A    between atoms: C_12  and  C_13 
ROOT
ATOM      1  O   UNL A   1      15.872   6.126   9.609  1.00  0.00    -0.358 OA
ATOM      2  H   UNL A   1      16.520   5.561   9.982  1.00  0.00     0.217 HD
ENDROOT
BRANCH   1   3
ATOM      3  C   UNL A   1      14.589   6.085  10.063  1.00  0.00     0.099 A 
ATOM      4  C   UNL A   1      14.344   6.141  11.435  1.00  0.00     0.050 A 
ATOM      5  C   UNL A   1      13.033   6.102  11.911  1.00  0.00    -0.033 A 
ATOM      6  C   UNL A   1      11.968   6.008  11.015  1.00  0.00     0.014 A 
ATOM      7  C   UNL A   1      12.214   5.954   9.643  1.00  0.00     0.040 A 
ATOM      8  C   UNL A   1      13.524   5.992   9.167  1.00  0.00     0.098 A 
BRANCH   5   9
ATOM      9  C   UNL A   1      12.778   6.158  13.342  1.00  0.00     0.018 C 
ATOM     10  C   UNL A   1      13.702   6.526  14.225  1.00  0.00     0.085 C 
BRANCH  10  11
ATOM     11  C   UNL A   1      13.345   6.532  15.658  1.00  0.00     0.198 C 
ATOM     12  O   UNL A   1      12.034   6.853  15.777  1.00  0.00    -0.645 OA
ATOM     13  O   UNL A   1      14.090   6.293  16.593  1.00  0.00    -0.645 OA
ENDBRANCH  10  11
ENDBRANCH   5   9
BRANCH   8  14
ATOM     14  O   UNL A   1      13.751   5.939   7.825  1.00  0.00    -0.358 OA
ATOM     15  H   UNL A   1      14.182   6.651   7.395  1.00  0.00     0.217 HD
ENDBRANCH   8  14
ENDBRANCH   1   3
TORSDOF 4
ENDMDL
MODEL 7
REMARK VINA RESULT:      -6.5      1.918      2.965
REMARK  4 active torsions:
REMARK  status: ('A' for Active; 'I' for Inactive)
REMARK    1  A    between atoms: O_1  and  C_8 
REMARK    2  A    between atoms: O_2  and  C_9 
REMARK    3  A    between atoms: C_5  and  C_11 
REMARK    4  A    between atoms: C_12  and  C_13 
ROOT
ATOM      1  O   UNL A   1      14.768   6.880  16.764  1.00  0.00    -0.358 OA
ATOM      2  H   UNL A   1      15.633   6.520  16.777  1.00  0.00     0.217 HD
ENDROOT
BRANCH   1   3
ATOM      3  C   UNL A   1      13.981   6.719  15.665  1.00  0.00     0.099 A 
ATOM      4  C   UNL A   1      14.574   6.523  14.418  1.00  0.00     0.050 A 
ATOM      5  C   UNL A   1      13.777   6.355  13.284  1.00  0.00    -0.033 A 
ATOM      6  C   UNL A   1      12.387   6.382  13.400  1.00  0.00     0.014 A 
ATOM      7  C   UNL A   1      11.795   6.578  14.647  1.00  0.00     0.040 A 
ATOM      8  C   UNL A   1      12.591   6.746  15.779  1.00  0.00     0.098 A 
BRANCH   5   9
ATOM      9  C   UNL A   1      14.396   6.153  11.985  1.00  0.00     0.018 C 
ATOM     10  C   UNL A   1      13.718   6.231  10.843  1.00  0.00     0.085 C 
BRANCH  10  11
ATOM     11  C   UNL A   1      14.438   5.991   9.576  1.00  0.00     0.198 C 
ATOM     12  O   UNL A   1      15.769   6.055   9.815  1.00  0.00    -0.645 OA
ATOM     13  O   UNL A   1      13.936   5.771   8.487  1.00  0.00    -0.645 OA
ENDBRANCH  10  11
ENDBRANCH   5   9
BRANCH   8  14
ATOM     14  O   UNL A   1      12.000   6.935  16.992  1.00  0.00    -0.358 OA
ATOM     15  H   UNL A   1      12.462   7.383  17.673  1.00  0.00     0.217 HD
ENDBRANCH   8  14
ENDBRANCH   1   3
TORSDOF 4
ENDMDL
MODEL 8
REMARK VINA RESULT:      -6.4      2.978      3.665
REMARK  4 active torsions:
REMARK  status: ('A' for Active; 'I' for Inactive)
REMARK    1  A    between atoms: O_1  and  C_8 
REMARK    2  A    between atoms: O_2  and  C_9 
REMARK    3  A    between atoms: C_5  and  C_11 
REMARK    4  A    between atoms: C_12  and  C_13 
ROOT
ATOM      1  O   UNL A   1      10.857   6.817  14.218  1.00  0.00    -0.358 OA
ATOM      2  H   UNL A   1      10.408   7.371  14.826  1.00  0.00     0.217 HD
ENDROOT
BRANCH   1   3
ATOM      3  C   UNL A   1      12.201   6.629  14.333  1.00  0.00     0.099 A 
ATOM      4  C   UNL A   1      12.965   6.412  13.187  1.00  0.00     0.050 A 
ATOM      5  C   UNL A   1      14.343   6.220  13.293  1.00  0.00    -0.033 A 
ATOM      6  C   UNL A   1      14.956   6.247  14.545  1.00  0.00     0.014 A 
ATOM      7  C   UNL A   1      14.192   6.465  15.692  1.00  0.00     0.040 A 
ATOM      8  C   UNL A   1      12.815   6.656  15.585  1.00  0.00     0.098 A 
BRANCH   5   9
ATOM      9  C   UNL A   1      15.139   5.992  12.098  1.00  0.00     0.018 C 
ATOM     10  C   UNL A   1      16.466   6.087  12.086  1.00  0.00     0.085 C 
BRANCH  10  11
ATOM     11  C   UNL A   1      17.179   5.853  10.814  1.00  0.00     0.198 C 
ATOM     12  O   UNL A   1      16.299   5.985   9.793  1.00  0.00    -0.645 OA
ATOM     13  O   UNL A   1      18.361   5.584  10.684  1.00  0.00    -0.645 OA
ENDBRANCH  10  11
ENDBRANCH   5   9
BRANCH   8  14
ATOM     14  O   UNL A   1      12.079   6.869  16.712  1.00  0.00    -0.358 OA
ATOM     15  H   UNL A   1      11.946   6.171  17.323  1.00  0.00     0.217 HD
ENDBRANCH   8  14
ENDBRANCH   1   3
TORSDOF 4
ENDMDL
MODEL 9
REMARK VINA RESULT:      -6.2      1.874      2.516
REMARK  4 active torsions:
REMARK  status: ('A' for Active; 'I' for Inactive)
REMARK    1  A    between atoms: O_1  and  C_8 
REMARK    2  A    between atoms: O_2  and  C_9 
REMARK    3  A    between atoms: C_5  and  C_11 
REMARK    4  A    between atoms: C_12  and  C_13 
ROOT
ATOM      1  O   UNL A   1      16.593   6.119  13.296  1.00  0.00    -0.358 OA
ATOM      2  H   UNL A   1      17.236   5.450  13.426  1.00  0.00     0.217 HD
ENDROOT
BRANCH   1   3
ATOM      3  C   UNL A   1      15.299   5.780  13.042  1.00  0.00     0.099 A 
ATOM      4  C   UNL A   1      14.733   6.105  11.809  1.00  0.00     0.050 A 
ATOM      5  C   UNL A   1      13.408   5.761  11.538  1.00  0.00    -0.033 A 
ATOM      6  C   UNL A   1      12.651   5.091  12.499  1.00  0.00     0.014 A 
ATOM      7  C   UNL A   1      13.218   4.766  13.732  1.00  0.00     0.040 A 
ATOM      8  C   UNL A   1      14.542   5.111  14.003  1.00  0.00     0.098 A 
BRANCH   5   9
ATOM      9  C   UNL A   1      12.817   6.101  10.254  1.00  0.00     0.018 C 
ATOM     10  C   UNL A   1      13.448   5.913   9.098  1.00  0.00     0.085 C 
BRANCH  10  11
ATOM     11  C   UNL A   1      12.766   6.308   7.849  1.00  0.00     0.198 C 
ATOM     12  O   UNL A   1      11.561   6.840   8.163  1.00  0.00    -0.645 OA
ATOM     13  O   UNL A   1      13.198   6.184   6.715  1.00  0.00    -0.645 OA
ENDBRANCH  10  11
ENDBRANCH   5   9
BRANCH   8  14
ATOM     14  O   UNL A   1      15.084   4.787  15.209  1.00  0.00    -0.358 OA
ATOM     15  H   UNL A   1      15.978   4.510  15.262  1.00  0.00     0.217 HD
ENDBRANCH   8  14
ENDBRANCH   1   3
TORSDOF 4
ENDMDL
