MODEL 1
REMARK VINA RESULT:      -7.8      0.000      0.000
REMARK  4 active torsions:
REMARK  status: ('A' for Active; 'I' for Inactive)
REMARK    1  A    between atoms: O_1  and  C_9 
REMARK    2  A    between atoms: O_2  and  C_10 
REMARK    3  A    between atoms: C_3  and  C_5 
REMARK    4  A    between atoms: C_4  and  C_8 
ROOT
HETATM    1  O   UNL     1      18.010  -2.687  25.510  1.00  0.00    -0.358 OA
HETATM    2  H   UNL     1      17.683  -1.982  24.985  1.00  0.00     0.217 HD
ENDROOT
BRANCH   1   3
HETATM    3  C   UNL     1      19.133  -2.513  26.261  1.00  0.00     0.099 A 
HETATM    4  C   UNL     1      19.314  -3.280  27.411  1.00  0.00     0.050 A 
HETATM    5  C   UNL     1      20.458  -3.099  28.172  1.00  0.00    -0.033 A 
HETATM    6  C   UNL     1      21.424  -2.173  27.816  1.00  0.00     0.014 A 
HETATM    7  C   UNL     1      21.242  -1.405  26.665  1.00  0.00     0.040 A 
HETATM    8  C   UNL     1      20.097  -1.576  25.888  1.00  0.00     0.098 A 
BRANCH   5   9
HETATM    9  C   UNL     1      20.651  -3.911  29.388  1.00  0.00     0.012 C 
HETATM   10  C   UNL     1      21.845  -4.352  29.850  1.00  0.00     0.012 C 
BRANCH  10  11
HETATM   11  C   UNL     1      22.038  -5.136  31.060  1.00  0.00    -0.036 A 
HETATM   12  C   UNL     1      22.572  -6.421  30.982  1.00  0.00     0.011 A 
HETATM   13  C   UNL     1      22.757  -7.172  32.142  1.00  0.00     0.001 A 
HETATM   14  C   UNL     1      22.407  -6.637  33.381  1.00  0.00     0.000 A 
HETATM   15  C   UNL     1      21.872  -5.351  33.461  1.00  0.00     0.001 A 
HETATM   16  C   UNL     1      21.688  -4.600  32.300  1.00  0.00     0.011 A 
ENDBRANCH  10  11
ENDBRANCH   5   9
BRANCH   8  17
HETATM   17  O   UNL     1      19.930  -0.819  24.767  1.00  0.00    -0.358 OA
HETATM   18  H   UNL     1      19.081  -0.486  24.549  1.00  0.00     0.217 HD
ENDBRANCH   8  17
ENDBRANCH   1   3
TORSDOF 4
ENDMDL
MODEL 2
REMARK VINA RESULT:      -7.7      1.892      2.904
REMARK  4 active torsions:
REMARK  status: ('A' for Active; 'I' for Inactive)
REMARK    1  A    between atoms: O_1  and  C_9 
REMARK    2  A    between atoms: O_2  and  C_10 
REMARK    3  A    between atoms: C_3  and  C_5 
REMARK    4  A    between atoms: C_4  and  C_8 
ROOT
HETATM    1  O   UNL     1      20.113  -0.822  25.900  1.00  0.00    -0.358 OA
HETATM    2  H   UNL     1      20.042   0.070  26.179  1.00  0.00     0.217 HD
ENDROOT
BRANCH   1   3
HETATM    3  C   UNL     1      19.729  -1.828  26.735  1.00  0.00     0.099 A 
HETATM    4  C   UNL     1      20.371  -1.982  27.964  1.00  0.00     0.050 A 
HETATM    5  C   UNL     1      19.978  -3.007  28.809  1.00  0.00    -0.033 A 
HETATM    6  C   UNL     1      18.963  -3.882  28.460  1.00  0.00     0.014 A 
HETATM    7  C   UNL     1      18.321  -3.728  27.231  1.00  0.00     0.040 A 
HETATM    8  C   UNL     1      18.704  -2.701  26.369  1.00  0.00     0.098 A 
BRANCH   5   9
HETATM    9  C   UNL     1      20.655  -3.170  30.109  1.00  0.00     0.012 C 
HETATM   10  C   UNL     1      20.573  -2.303  31.145  1.00  0.00     0.012 C 
BRANCH  10  11
HETATM   11  C   UNL     1      21.225  -2.473  32.435  1.00  0.00    -0.036 A 
HETATM   12  C   UNL     1      21.709  -3.724  32.811  1.00  0.00     0.011 A 
HETATM   13  C   UNL     1      22.335  -3.888  34.047  1.00  0.00     0.001 A 
HETATM   14  C   UNL     1      22.475  -2.798  34.906  1.00  0.00     0.000 A 
HETATM   15  C   UNL     1      21.991  -1.545  34.530  1.00  0.00     0.001 A 
HETATM   16  C   UNL     1      21.366  -1.382  33.293  1.00  0.00     0.011 A 
ENDBRANCH  10  11
ENDBRANCH   5   9
BRANCH   8  17
HETATM   17  O   UNL     1      18.071  -2.562  25.171  1.00  0.00    -0.358 OA
HETATM   18  H   UNL     1      17.135  -2.525  25.137  1.00  0.00     0.217 HD
ENDBRANCH   8  17
ENDBRANCH   1   3
TORSDOF 4
ENDMDL
MODEL 3
REMARK VINA RESULT:      -7.5      1.094      2.204
REMARK  4 active torsions:
REMARK  status: ('A' for Active; 'I' for Inactive)
REMARK    1  A    between atoms: O_1  and  C_9 
REMARK    2  A    between atoms: O_2  and  C_10 
REMARK    3  A    between atoms: C_3  and  C_5 
REMARK    4  A    between atoms: C_4  and  C_8 
ROOT
HETATM    1  O   UNL     1      20.067  -0.448  27.032  1.00  0.00    -0.358 OA
HETATM    2  H   UNL     1      19.626   0.182  27.567  1.00  0.00     0.217 HD
ENDROOT
BRANCH   1   3
HETATM    3  C   UNL     1      19.788  -1.775  27.171  1.00  0.00     0.099 A 
HETATM    4  C   UNL     1      20.589  -2.560  28.000  1.00  0.00     0.050 A 
HETATM    5  C   UNL     1      20.302  -3.909  28.139  1.00  0.00    -0.033 A 
HETATM    6  C   UNL     1      19.238  -4.493  27.472  1.00  0.00     0.014 A 
HETATM    7  C   UNL     1      18.437  -3.707  26.643  1.00  0.00     0.040 A 
HETATM    8  C   UNL     1      18.713  -2.348  26.493  1.00  0.00     0.098 A 
BRANCH   5   9
HETATM    9  C   UNL     1      21.147  -4.739  29.016  1.00  0.00     0.012 C 
HETATM   10  C   UNL     1      21.052  -4.795  30.365  1.00  0.00     0.012 C 
BRANCH  10  11
HETATM   11  C   UNL     1      21.873  -5.630  31.229  1.00  0.00    -0.036 A 
HETATM   12  C   UNL     1      22.025  -5.304  32.576  1.00  0.00     0.011 A 
HETATM   13  C   UNL     1      22.811  -6.105  33.404  1.00  0.00     0.001 A 
HETATM   14  C   UNL     1      23.446  -7.232  32.884  1.00  0.00     0.000 A 
HETATM   15  C   UNL     1      23.295  -7.559  31.536  1.00  0.00     0.001 A 
HETATM   16  C   UNL     1      22.508  -6.758  30.709  1.00  0.00     0.011 A 
ENDBRANCH  10  11
ENDBRANCH   5   9
BRANCH   8  17
HETATM   17  O   UNL     1      17.925  -1.591  25.679  1.00  0.00    -0.358 OA
HETATM   18  H   UNL     1      16.992  -1.671  25.724  1.00  0.00     0.217 HD
ENDBRANCH   8  17
ENDBRANCH   1   3
TORSDOF 4
ENDMDL
MODEL 4
REMARK VINA RESULT:      -7.2      3.937      6.537
REMARK  4 active torsions:
REMARK  status: ('A' for Active; 'I' for Inactive)
REMARK    1  A    between atoms: O_1  and  C_9 
REMARK    2  A    between atoms: O_2  and  C_10 
REMARK    3  A    between atoms: C_3  and  C_5 
REMARK    4  A    between atoms: C_4  and  C_8 
ROOT
HETATM    1  O   UNL     1      21.641  -0.784  32.907  1.00  0.00    -0.358 OA
HETATM    2  H   UNL     1      20.970  -0.372  33.416  1.00  0.00     0.217 HD
ENDROOT
BRANCH   1   3
HETATM    3  C   UNL     1      21.663  -2.140  32.780  1.00  0.00     0.099 A 
HETATM    4  C   UNL     1      21.194  -2.727  31.605  1.00  0.00     0.050 A 
HETATM    5  C   UNL     1      21.217  -4.107  31.481  1.00  0.00    -0.033 A 
HETATM    6  C   UNL     1      21.696  -4.915  32.498  1.00  0.00     0.014 A 
HETATM    7  C   UNL     1      22.166  -4.328  33.674  1.00  0.00     0.040 A 
HETATM    8  C   UNL     1      22.149  -2.941  33.814  1.00  0.00     0.098 A 
BRANCH   5   9
HETATM    9  C   UNL     1      20.722  -4.728  30.239  1.00  0.00     0.012 C 
HETATM   10  C   UNL     1      19.555  -4.420  29.624  1.00  0.00     0.012 C 
BRANCH  10  11
HETATM   11  C   UNL     1      19.076  -5.019  28.387  1.00  0.00    -0.036 A 
HETATM   12  C   UNL     1      19.986  -5.503  27.449  1.00  0.00     0.011 A 
HETATM   13  C   UNL     1      19.527  -6.078  26.263  1.00  0.00     0.001 A 
HETATM   14  C   UNL     1      18.157  -6.167  26.018  1.00  0.00     0.000 A 
HETATM   15  C   UNL     1      17.246  -5.683  26.957  1.00  0.00     0.001 A 
HETATM   16  C   UNL     1      17.706  -5.110  28.143  1.00  0.00     0.011 A 
ENDBRANCH  10  11
ENDBRANCH   5   9
BRANCH   8  17
HETATM   17  O   UNL     1      22.608  -2.379  34.967  1.00  0.00    -0.358 OA
HETATM   18  H   UNL     1      23.036  -2.911  35.609  1.00  0.00     0.217 HD
ENDBRANCH   8  17
ENDBRANCH   1   3
TORSDOF 4
ENDMDL
MODEL 5
REMARK VINA RESULT:      -7.2      4.052      5.781
REMARK  4 active torsions:
REMARK  status: ('A' for Active; 'I' for Inactive)
REMARK    1  A    between atoms: O_1  and  C_9 
REMARK    2  A    between atoms: O_2  and  C_10 
REMARK    3  A    between atoms: C_3  and  C_5 
REMARK    4  A    between atoms: C_4  and  C_8 
ROOT
HETATM    1  O   UNL     1      21.438  -0.627  31.881  1.00  0.00    -0.358 OA
HETATM    2  H   UNL     1      21.975  -0.278  31.197  1.00  0.00     0.217 HD
ENDROOT
BRANCH   1   3
HETATM    3  C   UNL     1      21.623  -1.909  32.306  1.00  0.00     0.099 A 
HETATM    4  C   UNL     1      21.549  -2.953  31.385  1.00  0.00     0.050 A 
HETATM    5  C   UNL     1      21.738  -4.255  31.821  1.00  0.00    -0.033 A 
HETATM    6  C   UNL     1      21.997  -4.540  33.151  1.00  0.00     0.014 A 
HETATM    7  C   UNL     1      22.071  -3.495  34.073  1.00  0.00     0.040 A 
HETATM    8  C   UNL     1      21.884  -2.179  33.649  1.00  0.00     0.098 A 
BRANCH   5   9
HETATM    9  C   UNL     1      21.661  -5.360  30.848  1.00  0.00     0.012 C 
HETATM   10  C   UNL     1      22.586  -6.339  30.706  1.00  0.00     0.012 C 
BRANCH  10  11
HETATM   11  C   UNL     1      22.500  -7.441  29.759  1.00  0.00    -0.036 A 
HETATM   12  C   UNL     1      23.647  -8.153  29.413  1.00  0.00     0.011 A 
HETATM   13  C   UNL     1      23.565  -9.210  28.505  1.00  0.00     0.001 A 
HETATM   14  C   UNL     1      22.335  -9.553  27.945  1.00  0.00     0.000 A 
HETATM   15  C   UNL     1      21.187  -8.840  28.292  1.00  0.00     0.001 A 
HETATM   16  C   UNL     1      21.269  -7.784  29.200  1.00  0.00     0.011 A 
ENDBRANCH  10  11
ENDBRANCH   5   9
BRANCH   8  17
HETATM   17  O   UNL     1      21.956  -1.167  34.558  1.00  0.00    -0.358 OA
HETATM   18  H   UNL     1      21.171  -0.806  34.921  1.00  0.00     0.217 HD
ENDBRANCH   8  17
ENDBRANCH   1   3
TORSDOF 4
ENDMDL
MODEL 6
REMARK VINA RESULT:      -7.2      4.039      5.828
REMARK  4 active torsions:
REMARK  status: ('A' for Active; 'I' for Inactive)
REMARK    1  A    between atoms: O_1  and  C_9 
REMARK    2  A    between atoms: O_2  and  C_10 
REMARK    3  A    between atoms: C_3  and  C_5 
REMARK    4  A    between atoms: C_4  and  C_8 
ROOT
HETATM    1  O   UNL     1      21.459  -0.614  31.874  1.00  0.00    -0.358 OA
HETATM    2  H   UNL     1      22.015  -0.251  31.212  1.00  0.00     0.217 HD
ENDROOT
BRANCH   1   3
HETATM    3  C   UNL     1      21.640  -1.900  32.286  1.00  0.00     0.099 A 
HETATM    4  C   UNL     1      21.602  -2.932  31.348  1.00  0.00     0.050 A 
HETATM    5  C   UNL     1      21.785  -4.238  31.770  1.00  0.00    -0.033 A 
HETATM    6  C   UNL     1      22.006  -4.542  33.104  1.00  0.00     0.014 A 
HETATM    7  C   UNL     1      22.044  -3.509  34.042  1.00  0.00     0.040 A 
HETATM    8  C   UNL     1      21.861  -2.189  33.632  1.00  0.00     0.098 A 
BRANCH   5   9
HETATM    9  C   UNL     1      21.746  -5.329  30.780  1.00  0.00     0.012 C 
HETATM   10  C   UNL     1      22.579  -6.397  30.763  1.00  0.00     0.012 C 
BRANCH  10  11
HETATM   11  C   UNL     1      22.528  -7.484  29.796  1.00  0.00    -0.036 A 
HETATM   12  C   UNL     1      21.314  -7.838  29.209  1.00  0.00     0.011 A 
HETATM   13  C   UNL     1      21.265  -8.880  28.282  1.00  0.00     0.001 A 
HETATM   14  C   UNL     1      22.431  -9.567  27.944  1.00  0.00     0.000 A 
HETATM   15  C   UNL     1      23.646  -9.213  28.532  1.00  0.00     0.001 A 
HETATM   16  C   UNL     1      23.694  -8.171  29.458  1.00  0.00     0.011 A 
ENDBRANCH  10  11
ENDBRANCH   5   9
BRANCH   8  17
HETATM   17  O   UNL     1      21.898  -1.190  34.558  1.00  0.00    -0.358 OA
HETATM   18  H   UNL     1      21.100  -0.840  34.902  1.00  0.00     0.217 HD
ENDBRANCH   8  17
ENDBRANCH   1   3
TORSDOF 4
ENDMDL
MODEL 7
REMARK VINA RESULT:      -6.9      2.991      3.818
REMARK  4 active torsions:
REMARK  status: ('A' for Active; 'I' for Inactive)
REMARK    1  A    between atoms: O_1  and  C_9 
REMARK    2  A    between atoms: O_2  and  C_10 
REMARK    3  A    between atoms: C_3  and  C_5 
REMARK    4  A    between atoms: C_4  and  C_8 
ROOT
HETATM    1  O   UNL     1      20.385  -7.077  25.766  1.00  0.00    -0.358 OA
HETATM    2  H   UNL     1      20.502  -6.813  24.874  1.00  0.00     0.217 HD
ENDROOT
BRANCH   1   3
HETATM    3  C   UNL     1      19.755  -6.248  26.645  1.00  0.00     0.099 A 
HETATM    4  C   UNL     1      20.379  -5.925  27.850  1.00  0.00     0.050 A 
HETATM    5  C   UNL     1      19.736  -5.082  28.741  1.00  0.00    -0.033 A 
HETATM    6  C   UNL     1      18.486  -4.554  28.462  1.00  0.00     0.014 A 
HETATM    7  C   UNL     1      17.862  -4.877  27.256  1.00  0.00     0.040 A 
HETATM    8  C   UNL     1      18.497  -5.724  26.349  1.00  0.00     0.098 A 
BRANCH   5   9
HETATM    9  C   UNL     1      20.395  -4.739  30.014  1.00  0.00     0.012 C 
HETATM   10  C   UNL     1      20.370  -3.520  30.602  1.00  0.00     0.012 C 
BRANCH  10  11
HETATM   11  C   UNL     1      21.005  -3.186  31.869  1.00  0.00    -0.036 A 
HETATM   12  C   UNL     1      20.931  -1.886  32.365  1.00  0.00     0.011 A 
HETATM   13  C   UNL     1      21.539  -1.567  33.579  1.00  0.00     0.001 A 
HETATM   14  C   UNL     1      22.220  -2.550  34.297  1.00  0.00     0.000 A 
HETATM   15  C   UNL     1      22.294  -3.852  33.800  1.00  0.00     0.001 A 
HETATM   16  C   UNL     1      21.686  -4.170  32.586  1.00  0.00     0.011 A 
ENDBRANCH  10  11
ENDBRANCH   5   9
BRANCH   8  17
HETATM   17  O   UNL     1      17.876  -6.034  25.176  1.00  0.00    -0.358 OA
HETATM   18  H   UNL     1      18.137  -6.795  24.695  1.00  0.00     0.217 HD
ENDBRANCH   8  17
ENDBRANCH   1   3
TORSDOF 4
ENDMDL
MODEL 8
REMARK VINA RESULT:      -6.9      3.061      3.566
REMARK  4 active torsions:
REMARK  status: ('A' for Active; 'I' for Inactive)
REMARK    1  A    between atoms: O_1  and  C_9 
REMARK    2  A    between atoms: O_2  and  C_10 
REMARK    3  A    between atoms: C_3  and  C_5 
REMARK    4  A    between atoms: C_4  and  C_8 
ROOT
HETATM    1  O   UNL     1      16.193  -5.643  26.881  1.00  0.00    -0.358 OA
HETATM    2  H   UNL     1      15.622  -5.811  27.605  1.00  0.00     0.217 HD
ENDROOT
BRANCH   1   3
HETATM    3  C   UNL     1      17.544  -5.666  27.058  1.00  0.00     0.099 A 
HETATM    4  C   UNL     1      18.079  -5.302  28.294  1.00  0.00     0.050 A 
HETATM    5  C   UNL     1      19.453  -5.326  28.471  1.00  0.00    -0.033 A 
HETATM    6  C   UNL     1      20.306  -5.703  27.447  1.00  0.00     0.014 A 
HETATM    7  C   UNL     1      19.771  -6.067  26.211  1.00  0.00     0.040 A 
HETATM    8  C   UNL     1      18.390  -6.048  26.017  1.00  0.00     0.098 A 
BRANCH   5   9
HETATM    9  C   UNL     1      20.019  -4.942  29.776  1.00  0.00     0.012 C 
HETATM   10  C   UNL     1      20.424  -3.695  30.115  1.00  0.00     0.012 C 
BRANCH  10  11
HETATM   11  C   UNL     1      20.965  -3.312  31.411  1.00  0.00    -0.036 A 
HETATM   12  C   UNL     1      21.581  -4.266  32.219  1.00  0.00     0.011 A 
HETATM   13  C   UNL     1      22.099  -3.899  33.461  1.00  0.00     0.001 A 
HETATM   14  C   UNL     1      22.001  -2.577  33.893  1.00  0.00     0.000 A 
HETATM   15  C   UNL     1      21.385  -1.622  33.084  1.00  0.00     0.001 A 
HETATM   16  C   UNL     1      20.867  -1.989  31.842  1.00  0.00     0.011 A 
ENDBRANCH  10  11
ENDBRANCH   5   9
BRANCH   8  17
HETATM   17  O   UNL     1      17.879  -6.404  24.805  1.00  0.00    -0.358 OA
HETATM   18  H   UNL     1      17.137  -5.949  24.457  1.00  0.00     0.217 HD
ENDBRANCH   8  17
ENDBRANCH   1   3
TORSDOF 4
ENDMDL
MODEL 9
REMARK VINA RESULT:      -6.9      5.361      7.708
REMARK  4 active torsions:
REMARK  status: ('A' for Active; 'I' for Inactive)
REMARK    1  A    between atoms: O_1  and  C_9 
REMARK    2  A    between atoms: O_2  and  C_10 
REMARK    3  A    between atoms: C_3  and  C_5 
REMARK    4  A    between atoms: C_4  and  C_8 
ROOT
HETATM    1  O   UNL     1      26.175  -9.953  32.641  1.00  0.00    -0.358 OA
HETATM    2  H   UNL     1      26.741  -9.333  33.058  1.00  0.00     0.217 HD
ENDROOT
BRANCH   1   3
HETATM    3  C   UNL     1      25.434  -9.577  31.560  1.00  0.00     0.099 A 
HETATM    4  C   UNL     1      24.707  -8.388  31.607  1.00  0.00     0.050 A 
HETATM    5  C   UNL     1      23.955  -8.010  30.506  1.00  0.00    -0.033 A 
HETATM    6  C   UNL     1      23.909  -8.789  29.362  1.00  0.00     0.014 A 
HETATM    7  C   UNL     1      24.636  -9.979  29.315  1.00  0.00     0.040 A 
HETATM    8  C   UNL     1      25.398 -10.372  30.415  1.00  0.00     0.098 A 
BRANCH   5   9
HETATM    9  C   UNL     1      23.187  -6.753  30.554  1.00  0.00     0.012 C 
HETATM   10  C   UNL     1      22.747  -6.150  31.684  1.00  0.00     0.012 C 
BRANCH  10  11
HETATM   11  C   UNL     1      22.007  -4.898  31.733  1.00  0.00    -0.036 A 
HETATM   12  C   UNL     1      22.058  -4.102  32.875  1.00  0.00     0.011 A 
HETATM   13  C   UNL     1      21.348  -2.901  32.922  1.00  0.00     0.001 A 
HETATM   14  C   UNL     1      20.587  -2.499  31.824  1.00  0.00     0.000 A 
HETATM   15  C   UNL     1      20.536  -3.296  30.680  1.00  0.00     0.001 A 
HETATM   16  C   UNL     1      21.247  -4.496  30.634  1.00  0.00     0.011 A 
ENDBRANCH  10  11
ENDBRANCH   5   9
BRANCH   8  17
HETATM   17  O   UNL     1      26.102 -11.537  30.358  1.00  0.00    -0.358 OA
HETATM   18  H   UNL     1      25.805 -12.288  30.834  1.00  0.00     0.217 HD
ENDBRANCH   8  17
ENDBRANCH   1   3
TORSDOF 4
ENDMDL
