MODEL 1
REMARK VINA RESULT:      -7.5      0.000      0.000
REMARK  4 active torsions:
REMARK  status: ('A' for Active; 'I' for Inactive)
REMARK    1  A    between atoms: O_1  and  C_9 
REMARK    2  A    between atoms: O_2  and  C_10 
REMARK    3  A    between atoms: C_3  and  C_5 
REMARK    4  A    between atoms: C_4  and  C_8 
ROOT
HETATM    1  O   UNL     1      11.512   6.797  16.328  1.00  0.00    -0.358 OA
HETATM    2  H   UNL     1      10.877   7.415  16.021  1.00  0.00     0.217 HD
ENDROOT
BRANCH   1   3
HETATM    3  C   UNL     1      12.646   6.571  15.607  1.00  0.00     0.099 A 
HETATM    4  C   UNL     1      12.554   6.371  14.230  1.00  0.00     0.050 A 
HETATM    5  C   UNL     1      13.709   6.141  13.500  1.00  0.00    -0.033 A 
HETATM    6  C   UNL     1      14.952   6.106  14.109  1.00  0.00     0.014 A 
HETATM    7  C   UNL     1      15.044   6.306  15.487  1.00  0.00     0.040 A 
HETATM    8  C   UNL     1      13.891   6.539  16.235  1.00  0.00     0.098 A 
BRANCH   5   9
HETATM    9  C   UNL     1      13.613   5.930  12.044  1.00  0.00     0.012 C 
HETATM   10  C   UNL     1      12.461   5.921  11.332  1.00  0.00     0.012 C 
BRANCH  10  11
HETATM   11  C   UNL     1      12.368   5.733   9.892  1.00  0.00    -0.036 A 
HETATM   12  C   UNL     1      12.124   6.824   9.060  1.00  0.00     0.011 A 
HETATM   13  C   UNL     1      12.035   6.644   7.679  1.00  0.00     0.001 A 
HETATM   14  C   UNL     1      12.190   5.371   7.132  1.00  0.00     0.000 A 
HETATM   15  C   UNL     1      12.435   4.278   7.964  1.00  0.00     0.001 A 
HETATM   16  C   UNL     1      12.524   4.459   9.344  1.00  0.00     0.011 A 
ENDBRANCH  10  11
ENDBRANCH   5   9
BRANCH   8  17
HETATM   17  O   UNL     1      13.993   6.731  17.580  1.00  0.00    -0.358 OA
HETATM   18  H   UNL     1      14.447   6.105  18.109  1.00  0.00     0.217 HD
ENDBRANCH   8  17
ENDBRANCH   1   3
TORSDOF 4
ENDMDL
MODEL 2
REMARK VINA RESULT:      -7.2      3.577      7.002
REMARK  4 active torsions:
REMARK  status: ('A' for Active; 'I' for Inactive)
REMARK    1  A    between atoms: O_1  and  C_9 
REMARK    2  A    between atoms: O_2  and  C_10 
REMARK    3  A    between atoms: C_3  and  C_5 
REMARK    4  A    between atoms: C_4  and  C_8 
ROOT
HETATM    1  O   UNL     1      11.051   5.023  11.123  1.00  0.00    -0.358 OA
HETATM    2  H   UNL     1      10.337   5.597  10.921  1.00  0.00     0.217 HD
ENDROOT
BRANCH   1   3
HETATM    3  C   UNL     1      12.332   5.421  10.887  1.00  0.00     0.099 A 
HETATM    4  C   UNL     1      13.257   5.411  11.931  1.00  0.00     0.050 A 
HETATM    5  C   UNL     1      14.559   5.817  11.686  1.00  0.00    -0.033 A 
HETATM    6  C   UNL     1      14.962   6.231  10.428  1.00  0.00     0.014 A 
HETATM    7  C   UNL     1      14.036   6.241   9.383  1.00  0.00     0.040 A 
HETATM    8  C   UNL     1      12.722   5.835   9.613  1.00  0.00     0.098 A 
BRANCH   5   9
HETATM    9  C   UNL     1      15.537   5.806  12.789  1.00  0.00     0.012 C 
HETATM   10  C   UNL     1      16.827   5.409  12.683  1.00  0.00     0.012 C 
BRANCH  10  11
HETATM   11  C   UNL     1      17.798   5.418  13.767  1.00  0.00    -0.036 A 
HETATM   12  C   UNL     1      17.734   6.400  14.754  1.00  0.00     0.011 A 
HETATM   13  C   UNL     1      18.665   6.408  15.793  1.00  0.00     0.001 A 
HETATM   14  C   UNL     1      19.659   5.431  15.844  1.00  0.00     0.000 A 
HETATM   15  C   UNL     1      19.724   4.448  14.857  1.00  0.00     0.001 A 
HETATM   16  C   UNL     1      18.793   4.440  13.819  1.00  0.00     0.011 A 
ENDBRANCH  10  11
ENDBRANCH   5   9
BRANCH   8  17
HETATM   17  O   UNL     1      11.828   5.851   8.586  1.00  0.00    -0.358 OA
HETATM   18  H   UNL     1      12.087   6.172   7.744  1.00  0.00     0.217 HD
ENDBRANCH   8  17
ENDBRANCH   1   3
TORSDOF 4
ENDMDL
MODEL 3
REMARK VINA RESULT:      -7.1      3.070      7.055
REMARK  4 active torsions:
REMARK  status: ('A' for Active; 'I' for Inactive)
REMARK    1  A    between atoms: O_1  and  C_9 
REMARK    2  A    between atoms: O_2  and  C_10 
REMARK    3  A    between atoms: C_3  and  C_5 
REMARK    4  A    between atoms: C_4  and  C_8 
ROOT
HETATM    1  O   UNL     1      11.040   4.980  11.114  1.00  0.00    -0.358 OA
HETATM    2  H   UNL     1      10.875   4.556  11.933  1.00  0.00     0.217 HD
ENDROOT
BRANCH   1   3
HETATM    3  C   UNL     1      12.300   5.393  10.803  1.00  0.00     0.099 A 
HETATM    4  C   UNL     1      13.231   5.583  11.824  1.00  0.00     0.050 A 
HETATM    5  C   UNL     1      14.512   6.004  11.505  1.00  0.00    -0.033 A 
HETATM    6  C   UNL     1      14.887   6.241  10.193  1.00  0.00     0.014 A 
HETATM    7  C   UNL     1      13.956   6.051   9.171  1.00  0.00     0.040 A 
HETATM    8  C   UNL     1      12.663   5.627   9.477  1.00  0.00     0.098 A 
BRANCH   5   9
HETATM    9  C   UNL     1      15.496   6.204  12.583  1.00  0.00     0.012 C 
HETATM   10  C   UNL     1      15.356   5.768  13.858  1.00  0.00     0.012 C 
BRANCH  10  11
HETATM   11  C   UNL     1      16.337   5.948  14.918  1.00  0.00    -0.036 A 
HETATM   12  C   UNL     1      15.968   5.757  16.248  1.00  0.00     0.011 A 
HETATM   13  C   UNL     1      16.909   5.929  17.265  1.00  0.00     0.001 A 
HETATM   14  C   UNL     1      18.218   6.292  16.948  1.00  0.00     0.000 A 
HETATM   15  C   UNL     1      18.587   6.482  15.616  1.00  0.00     0.001 A 
HETATM   16  C   UNL     1      17.646   6.310  14.600  1.00  0.00     0.011 A 
ENDBRANCH  10  11
ENDBRANCH   5   9
BRANCH   8  17
HETATM   17  O   UNL     1      11.762   5.447   8.471  1.00  0.00    -0.358 OA
HETATM   18  H   UNL     1      11.491   4.582   8.233  1.00  0.00     0.217 HD
ENDBRANCH   8  17
ENDBRANCH   1   3
TORSDOF 4
ENDMDL
MODEL 4
REMARK VINA RESULT:      -7.1      3.063      7.040
REMARK  4 active torsions:
REMARK  status: ('A' for Active; 'I' for Inactive)
REMARK    1  A    between atoms: O_1  and  C_9 
REMARK    2  A    between atoms: O_2  and  C_10 
REMARK    3  A    between atoms: C_3  and  C_5 
REMARK    4  A    between atoms: C_4  and  C_8 
ROOT
HETATM    1  O   UNL     1      11.041   4.979  11.115  1.00  0.00    -0.358 OA
HETATM    2  H   UNL     1      10.905   4.323  11.770  1.00  0.00     0.217 HD
ENDROOT
BRANCH   1   3
HETATM    3  C   UNL     1      12.304   5.394  10.817  1.00  0.00     0.099 A 
HETATM    4  C   UNL     1      13.228   5.571  11.847  1.00  0.00     0.050 A 
HETATM    5  C   UNL     1      14.512   5.993  11.540  1.00  0.00    -0.033 A 
HETATM    6  C   UNL     1      14.897   6.243  10.233  1.00  0.00     0.014 A 
HETATM    7  C   UNL     1      13.972   6.066   9.203  1.00  0.00     0.040 A 
HETATM    8  C   UNL     1      12.677   5.641   9.496  1.00  0.00     0.098 A 
BRANCH   5   9
HETATM    9  C   UNL     1      15.489   6.180  12.628  1.00  0.00     0.012 C 
HETATM   10  C   UNL     1      15.345   5.719  13.893  1.00  0.00     0.012 C 
BRANCH  10  11
HETATM   11  C   UNL     1      16.319   5.886  14.962  1.00  0.00    -0.036 A 
HETATM   12  C   UNL     1      17.627   6.262  14.661  1.00  0.00     0.011 A 
HETATM   13  C   UNL     1      18.560   6.422  15.685  1.00  0.00     0.001 A 
HETATM   14  C   UNL     1      18.184   6.206  17.010  1.00  0.00     0.000 A 
HETATM   15  C   UNL     1      16.875   5.831  17.312  1.00  0.00     0.001 A 
HETATM   16  C   UNL     1      15.942   5.671  16.287  1.00  0.00     0.011 A 
ENDBRANCH  10  11
ENDBRANCH   5   9
BRANCH   8  17
HETATM   17  O   UNL     1      11.782   5.473   8.482  1.00  0.00    -0.358 OA
HETATM   18  H   UNL     1      12.087   5.373   7.600  1.00  0.00     0.217 HD
ENDBRANCH   8  17
ENDBRANCH   1   3
TORSDOF 4
ENDMDL
MODEL 5
REMARK VINA RESULT:      -6.9      3.095      7.056
REMARK  4 active torsions:
REMARK  status: ('A' for Active; 'I' for Inactive)
REMARK    1  A    between atoms: O_1  and  C_9 
REMARK    2  A    between atoms: O_2  and  C_10 
REMARK    3  A    between atoms: C_3  and  C_5 
REMARK    4  A    between atoms: C_4  and  C_8 
ROOT
HETATM    1  O   UNL     1      10.960   4.884  11.010  1.00  0.00    -0.358 OA
HETATM    2  H   UNL     1      10.310   5.370  11.478  1.00  0.00     0.217 HD
ENDROOT
BRANCH   1   3
HETATM    3  C   UNL     1      12.248   5.328  10.973  1.00  0.00     0.099 A 
HETATM    4  C   UNL     1      12.997   5.357  12.149  1.00  0.00     0.050 A 
HETATM    5  C   UNL     1      14.306   5.809  12.109  1.00  0.00    -0.033 A 
HETATM    6  C   UNL     1      14.886   6.234  10.925  1.00  0.00     0.014 A 
HETATM    7  C   UNL     1      14.136   6.206   9.748  1.00  0.00     0.040 A 
HETATM    8  C   UNL     1      12.818   5.752   9.773  1.00  0.00     0.098 A 
BRANCH   5   9
HETATM    9  C   UNL     1      15.098   5.839  13.351  1.00  0.00     0.012 C 
HETATM   10  C   UNL     1      15.188   4.824  14.243  1.00  0.00     0.012 C 
BRANCH  10  11
HETATM   11  C   UNL     1      15.987   4.846  15.460  1.00  0.00    -0.036 A 
HETATM   12  C   UNL     1      16.102   6.023  16.197  1.00  0.00     0.011 A 
HETATM   13  C   UNL     1      16.867   6.044  17.363  1.00  0.00     0.001 A 
HETATM   14  C   UNL     1      17.516   4.886  17.791  1.00  0.00     0.000 A 
HETATM   15  C   UNL     1      17.400   3.707  17.054  1.00  0.00     0.001 A 
HETATM   16  C   UNL     1      16.635   3.687  15.888  1.00  0.00     0.011 A 
ENDBRANCH  10  11
ENDBRANCH   5   9
BRANCH   8  17
HETATM   17  O   UNL     1      12.096   5.731   8.618  1.00  0.00    -0.358 OA
HETATM   18  H   UNL     1      12.527   5.844   7.793  1.00  0.00     0.217 HD
ENDBRANCH   8  17
ENDBRANCH   1   3
TORSDOF 4
ENDMDL
MODEL 6
REMARK VINA RESULT:      -6.9      1.315      1.973
REMARK  4 active torsions:
REMARK  status: ('A' for Active; 'I' for Inactive)
REMARK    1  A    between atoms: O_1  and  C_9 
REMARK    2  A    between atoms: O_2  and  C_10 
REMARK    3  A    between atoms: C_3  and  C_5 
REMARK    4  A    between atoms: C_4  and  C_8 
ROOT
HETATM    1  O   UNL     1      12.288   6.623  17.826  1.00  0.00    -0.358 OA
HETATM    2  H   UNL     1      12.151   7.265  18.494  1.00  0.00     0.217 HD
ENDROOT
BRANCH   1   3
HETATM    3  C   UNL     1      13.449   6.619  17.113  1.00  0.00     0.099 A 
HETATM    4  C   UNL     1      13.401   6.475  15.726  1.00  0.00     0.050 A 
HETATM    5  C   UNL     1      14.584   6.471  15.005  1.00  0.00    -0.033 A 
HETATM    6  C   UNL     1      15.812   6.607  15.631  1.00  0.00     0.014 A 
HETATM    7  C   UNL     1      15.859   6.752  17.018  1.00  0.00     0.040 A 
HETATM    8  C   UNL     1      14.678   6.757  17.758  1.00  0.00     0.098 A 
BRANCH   5   9
HETATM    9  C   UNL     1      14.535   6.320  13.539  1.00  0.00     0.012 C 
HETATM   10  C   UNL     1      13.404   6.182  12.807  1.00  0.00     0.012 C 
BRANCH  10  11
HETATM   11  C   UNL     1      13.355   6.052  11.358  1.00  0.00    -0.036 A 
HETATM   12  C   UNL     1      12.140   5.806  10.721  1.00  0.00     0.011 A 
HETATM   13  C   UNL     1      12.092   5.682   9.333  1.00  0.00     0.001 A 
HETATM   14  C   UNL     1      13.261   5.805   8.582  1.00  0.00     0.000 A 
HETATM   15  C   UNL     1      14.478   6.052   9.219  1.00  0.00     0.001 A 
HETATM   16  C   UNL     1      14.524   6.176  10.608  1.00  0.00     0.011 A 
ENDBRANCH  10  11
ENDBRANCH   5   9
BRANCH   8  17
HETATM   17  O   UNL     1      14.737   6.897  19.112  1.00  0.00    -0.358 OA
HETATM   18  H   UNL     1      15.563   7.032  19.534  1.00  0.00     0.217 HD
ENDBRANCH   8  17
ENDBRANCH   1   3
TORSDOF 4
ENDMDL
MODEL 7
REMARK VINA RESULT:      -6.8      3.831      7.254
REMARK  4 active torsions:
REMARK  status: ('A' for Active; 'I' for Inactive)
REMARK    1  A    between atoms: O_1  and  C_9 
REMARK    2  A    between atoms: O_2  and  C_10 
REMARK    3  A    between atoms: C_3  and  C_5 
REMARK    4  A    between atoms: C_4  and  C_8 
ROOT
HETATM    1  O   UNL     1      14.155   6.110   8.495  1.00  0.00    -0.358 OA
HETATM    2  H   UNL     1      13.519   5.842   7.861  1.00  0.00     0.217 HD
ENDROOT
BRANCH   1   3
HETATM    3  C   UNL     1      13.837   6.105   9.821  1.00  0.00     0.099 A 
HETATM    4  C   UNL     1      14.858   6.072  10.770  1.00  0.00     0.050 A 
HETATM    5  C   UNL     1      14.532   6.067  12.116  1.00  0.00    -0.033 A 
HETATM    6  C   UNL     1      13.213   6.093  12.539  1.00  0.00     0.014 A 
HETATM    7  C   UNL     1      12.191   6.126  11.589  1.00  0.00     0.040 A 
HETATM    8  C   UNL     1      12.504   6.132  10.230  1.00  0.00     0.098 A 
BRANCH   5   9
HETATM    9  C   UNL     1      15.610   6.033  13.121  1.00  0.00     0.012 C 
HETATM   10  C   UNL     1      16.752   5.314  13.014  1.00  0.00     0.012 C 
BRANCH  10  11
HETATM   11  C   UNL     1      17.826   5.296  13.996  1.00  0.00    -0.036 A 
HETATM   12  C   UNL     1      18.741   4.244  14.011  1.00  0.00     0.011 A 
HETATM   13  C   UNL     1      19.770   4.227  14.952  1.00  0.00     0.001 A 
HETATM   14  C   UNL     1      19.883   5.264  15.879  1.00  0.00     0.000 A 
HETATM   15  C   UNL     1      18.968   6.317  15.865  1.00  0.00     0.001 A 
HETATM   16  C   UNL     1      17.940   6.333  14.923  1.00  0.00     0.011 A 
ENDBRANCH  10  11
ENDBRANCH   5   9
BRANCH   8  17
HETATM   17  O   UNL     1      11.498   6.162   9.312  1.00  0.00    -0.358 OA
HETATM   18  H   UNL     1      10.803   5.535   9.357  1.00  0.00     0.217 HD
ENDBRANCH   8  17
ENDBRANCH   1   3
TORSDOF 4
ENDMDL
MODEL 8
REMARK VINA RESULT:      -6.7      3.292      7.426
REMARK  4 active torsions:
REMARK  status: ('A' for Active; 'I' for Inactive)
REMARK    1  A    between atoms: O_1  and  C_9 
REMARK    2  A    between atoms: O_2  and  C_10 
REMARK    3  A    between atoms: C_3  and  C_5 
REMARK    4  A    between atoms: C_4  and  C_8 
ROOT
HETATM    1  O   UNL     1      14.445   6.053   8.804  1.00  0.00    -0.358 OA
HETATM    2  H   UNL     1      15.364   6.187   8.676  1.00  0.00     0.217 HD
ENDROOT
BRANCH   1   3
HETATM    3  C   UNL     1      13.920   6.086  10.060  1.00  0.00     0.099 A 
HETATM    4  C   UNL     1      14.775   6.055  11.162  1.00  0.00     0.050 A 
HETATM    5  C   UNL     1      14.237   6.089  12.438  1.00  0.00    -0.033 A 
HETATM    6  C   UNL     1      12.869   6.151  12.644  1.00  0.00     0.014 A 
HETATM    7  C   UNL     1      12.013   6.182  11.542  1.00  0.00     0.040 A 
HETATM    8  C   UNL     1      12.540   6.149  10.251  1.00  0.00     0.098 A 
BRANCH   5   9
HETATM    9  C   UNL     1      15.141   6.057  13.603  1.00  0.00     0.012 C 
HETATM   10  C   UNL     1      14.763   6.251  14.888  1.00  0.00     0.012 C 
BRANCH  10  11
HETATM   11  C   UNL     1      15.651   6.201  16.040  1.00  0.00    -0.036 A 
HETATM   12  C   UNL     1      16.350   5.031  16.331  1.00  0.00     0.011 A 
HETATM   13  C   UNL     1      17.202   4.982  17.435  1.00  0.00     0.001 A 
HETATM   14  C   UNL     1      17.354   6.106  18.247  1.00  0.00     0.000 A 
HETATM   15  C   UNL     1      16.654   7.277  17.956  1.00  0.00     0.001 A 
HETATM   16  C   UNL     1      15.803   7.325  16.852  1.00  0.00     0.011 A 
ENDBRANCH  10  11
ENDBRANCH   5   9
BRANCH   8  17
HETATM   17  O   UNL     1      11.694   6.178   9.183  1.00  0.00    -0.358 OA
HETATM   18  H   UNL     1      11.631   6.950   8.655  1.00  0.00     0.217 HD
ENDBRANCH   8  17
ENDBRANCH   1   3
TORSDOF 4
ENDMDL
MODEL 9
REMARK VINA RESULT:      -6.7      3.421      4.240
REMARK  4 active torsions:
REMARK  status: ('A' for Active; 'I' for Inactive)
REMARK    1  A    between atoms: O_1  and  C_9 
REMARK    2  A    between atoms: O_2  and  C_10 
REMARK    3  A    between atoms: C_3  and  C_5 
REMARK    4  A    between atoms: C_4  and  C_8 
ROOT
HETATM    1  O   UNL     1      11.113   6.832  14.389  1.00  0.00    -0.358 OA
HETATM    2  H   UNL     1      10.819   6.302  13.674  1.00  0.00     0.217 HD
ENDROOT
BRANCH   1   3
HETATM    3  C   UNL     1      12.349   6.629  14.925  1.00  0.00     0.099 A 
HETATM    4  C   UNL     1      13.428   6.372  14.080  1.00  0.00     0.050 A 
HETATM    5  C   UNL     1      14.684   6.165  14.629  1.00  0.00    -0.033 A 
HETATM    6  C   UNL     1      14.889   6.209  15.998  1.00  0.00     0.014 A 
HETATM    7  C   UNL     1      13.809   6.466  16.843  1.00  0.00     0.040 A 
HETATM    8  C   UNL     1      12.539   6.676  16.306  1.00  0.00     0.098 A 
BRANCH   5   9
HETATM    9  C   UNL     1      15.826   5.894  13.737  1.00  0.00     0.012 C 
HETATM   10  C   UNL     1      15.899   6.252  12.433  1.00  0.00     0.012 C 
BRANCH  10  11
HETATM   11  C   UNL     1      17.034   6.002  11.558  1.00  0.00    -0.036 A 
HETATM   12  C   UNL     1      17.003   6.436  10.234  1.00  0.00     0.011 A 
HETATM   13  C   UNL     1      18.092   6.197   9.395  1.00  0.00     0.001 A 
HETATM   14  C   UNL     1      19.211   5.523   9.883  1.00  0.00     0.000 A 
HETATM   15  C   UNL     1      19.243   5.089  11.208  1.00  0.00     0.001 A 
HETATM   16  C   UNL     1      18.154   5.329  12.046  1.00  0.00     0.011 A 
ENDBRANCH  10  11
ENDBRANCH   5   9
BRANCH   8  17
HETATM   17  O   UNL     1      11.492   6.925  17.141  1.00  0.00    -0.358 OA
HETATM   18  H   UNL     1      11.308   7.803  17.414  1.00  0.00     0.217 HD
ENDBRANCH   8  17
ENDBRANCH   1   3
TORSDOF 4
ENDMDL
