MODEL 1
REMARK VINA RESULT:      -7.5      0.000      0.000
REMARK  4 active torsions:
REMARK  status: ('A' for Active; 'I' for Inactive)
REMARK    1  A    between atoms: O_1  and  C_9 
REMARK    2  A    between atoms: O_2  and  C_10 
REMARK    3  A    between atoms: C_3  and  C_5 
REMARK    4  A    between atoms: C_4  and  C_8 
ROOT
HETATM    1  O   UNL     1      11.596   6.857  16.340  1.00  0.00    -0.358 OA
HETATM    2  H   UNL     1      10.774   6.505  16.060  1.00  0.00     0.217 HD
ENDROOT
BRANCH   1   3
HETATM    3  C   UNL     1      12.719   6.632  15.602  1.00  0.00     0.099 A 
HETATM    4  C   UNL     1      12.608   6.442  14.225  1.00  0.00     0.050 A 
HETATM    5  C   UNL     1      13.753   6.213  13.478  1.00  0.00    -0.033 A 
HETATM    6  C   UNL     1      15.004   6.168  14.070  1.00  0.00     0.014 A 
HETATM    7  C   UNL     1      15.115   6.359  15.448  1.00  0.00     0.040 A 
HETATM    8  C   UNL     1      13.972   6.590  16.213  1.00  0.00     0.098 A 
BRANCH   5   9
HETATM    9  C   UNL     1      13.637   6.013  12.022  1.00  0.00     0.012 C 
HETATM   10  C   UNL     1      12.471   5.922  11.338  1.00  0.00     0.012 C 
BRANCH  10  11
HETATM   11  C   UNL     1      12.357   5.745   9.898  1.00  0.00    -0.036 A 
HETATM   12  C   UNL     1      12.097   6.842   9.079  1.00  0.00     0.011 A 
HETATM   13  C   UNL     1      11.987   6.672   7.699  1.00  0.00     0.001 A 
HETATM   14  C   UNL     1      12.138   5.403   7.139  1.00  0.00     0.000 A 
HETATM   15  C   UNL     1      12.399   4.305   7.959  1.00  0.00     0.001 A 
HETATM   16  C   UNL     1      12.509   4.476   9.339  1.00  0.00     0.011 A 
ENDBRANCH  10  11
ENDBRANCH   5   9
BRANCH   8  17
HETATM   17  O   UNL     1      14.093   6.772  17.558  1.00  0.00    -0.358 OA
HETATM   18  H   UNL     1      13.571   6.265  18.148  1.00  0.00     0.217 HD
ENDBRANCH   8  17
ENDBRANCH   1   3
TORSDOF 4
ENDMDL
MODEL 2
REMARK VINA RESULT:      -7.2      3.570      7.013
REMARK  4 active torsions:
REMARK  status: ('A' for Active; 'I' for Inactive)
REMARK    1  A    between atoms: O_1  and  C_9 
REMARK    2  A    between atoms: O_2  and  C_10 
REMARK    3  A    between atoms: C_3  and  C_5 
REMARK    4  A    between atoms: C_4  and  C_8 
ROOT
HETATM    1  O   UNL     1      11.063   5.017  11.118  1.00  0.00    -0.358 OA
HETATM    2  H   UNL     1      10.732   4.243  10.706  1.00  0.00     0.217 HD
ENDROOT
BRANCH   1   3
HETATM    3  C   UNL     1      12.343   5.420  10.883  1.00  0.00     0.099 A 
HETATM    4  C   UNL     1      13.270   5.403  11.925  1.00  0.00     0.050 A 
HETATM    5  C   UNL     1      14.570   5.814  11.683  1.00  0.00    -0.033 A 
HETATM    6  C   UNL     1      14.970   6.241  10.427  1.00  0.00     0.014 A 
HETATM    7  C   UNL     1      14.043   6.257   9.384  1.00  0.00     0.040 A 
HETATM    8  C   UNL     1      12.730   5.846   9.613  1.00  0.00     0.098 A 
BRANCH   5   9
HETATM    9  C   UNL     1      15.550   5.796  12.784  1.00  0.00     0.012 C 
HETATM   10  C   UNL     1      16.844   5.414  12.670  1.00  0.00     0.012 C 
BRANCH  10  11
HETATM   11  C   UNL     1      17.817   5.415  13.752  1.00  0.00    -0.036 A 
HETATM   12  C   UNL     1      17.763   6.399  14.738  1.00  0.00     0.011 A 
HETATM   13  C   UNL     1      18.695   6.400  15.776  1.00  0.00     0.001 A 
HETATM   14  C   UNL     1      19.681   5.415  15.827  1.00  0.00     0.000 A 
HETATM   15  C   UNL     1      19.736   4.430  14.841  1.00  0.00     0.001 A 
HETATM   16  C   UNL     1      18.803   4.429  13.803  1.00  0.00     0.011 A 
ENDBRANCH  10  11
ENDBRANCH   5   9
BRANCH   8  17
HETATM   17  O   UNL     1      11.834   5.869   8.587  1.00  0.00    -0.358 OA
HETATM   18  H   UNL     1      11.193   6.551   8.539  1.00  0.00     0.217 HD
ENDBRANCH   8  17
ENDBRANCH   1   3
TORSDOF 4
ENDMDL
MODEL 3
REMARK VINA RESULT:      -7.1      3.054      7.051
REMARK  4 active torsions:
REMARK  status: ('A' for Active; 'I' for Inactive)
REMARK    1  A    between atoms: O_1  and  C_9 
REMARK    2  A    between atoms: O_2  and  C_10 
REMARK    3  A    between atoms: C_3  and  C_5 
REMARK    4  A    between atoms: C_4  and  C_8 
ROOT
HETATM    1  O   UNL     1      11.048   4.970  11.107  1.00  0.00    -0.358 OA
HETATM    2  H   UNL     1      10.924   4.174  11.586  1.00  0.00     0.217 HD
ENDROOT
BRANCH   1   3
HETATM    3  C   UNL     1      12.307   5.389  10.798  1.00  0.00     0.099 A 
HETATM    4  C   UNL     1      13.236   5.582  11.820  1.00  0.00     0.050 A 
HETATM    5  C   UNL     1      14.515   6.009  11.502  1.00  0.00    -0.033 A 
HETATM    6  C   UNL     1      14.891   6.249  10.190  1.00  0.00     0.014 A 
HETATM    7  C   UNL     1      13.961   6.057   9.168  1.00  0.00     0.040 A 
HETATM    8  C   UNL     1      12.670   5.627   9.472  1.00  0.00     0.098 A 
BRANCH   5   9
HETATM    9  C   UNL     1      15.498   6.211  12.582  1.00  0.00     0.012 C 
HETATM   10  C   UNL     1      15.335   5.821  13.868  1.00  0.00     0.012 C 
BRANCH  10  11
HETATM   11  C   UNL     1      16.314   6.003  14.930  1.00  0.00    -0.036 A 
HETATM   12  C   UNL     1      17.657   6.197  14.614  1.00  0.00     0.011 A 
HETATM   13  C   UNL     1      18.595   6.372  15.631  1.00  0.00     0.001 A 
HETATM   14  C   UNL     1      18.188   6.353  16.965  1.00  0.00     0.000 A 
HETATM   15  C   UNL     1      16.843   6.159  17.282  1.00  0.00     0.001 A 
HETATM   16  C   UNL     1      15.905   5.985  16.264  1.00  0.00     0.011 A 
ENDBRANCH  10  11
ENDBRANCH   5   9
BRANCH   8  17
HETATM   17  O   UNL     1      11.770   5.444   8.465  1.00  0.00    -0.358 OA
HETATM   18  H   UNL     1      11.853   4.708   7.891  1.00  0.00     0.217 HD
ENDBRANCH   8  17
ENDBRANCH   1   3
TORSDOF 4
ENDMDL
MODEL 4
REMARK VINA RESULT:      -6.9      3.811      7.262
REMARK  4 active torsions:
REMARK  status: ('A' for Active; 'I' for Inactive)
REMARK    1  A    between atoms: O_1  and  C_9 
REMARK    2  A    between atoms: O_2  and  C_10 
REMARK    3  A    between atoms: C_3  and  C_5 
REMARK    4  A    between atoms: C_4  and  C_8 
ROOT
HETATM    1  O   UNL     1      14.147   6.103   8.485  1.00  0.00    -0.358 OA
HETATM    2  H   UNL     1      14.261   5.290   8.031  1.00  0.00     0.217 HD
ENDROOT
BRANCH   1   3
HETATM    3  C   UNL     1      13.836   6.104   9.811  1.00  0.00     0.099 A 
HETATM    4  C   UNL     1      14.862   6.083  10.756  1.00  0.00     0.050 A 
HETATM    5  C   UNL     1      14.542   6.084  12.104  1.00  0.00    -0.033 A 
HETATM    6  C   UNL     1      13.225   6.104  12.533  1.00  0.00     0.014 A 
HETATM    7  C   UNL     1      12.199   6.124  11.588  1.00  0.00     0.040 A 
HETATM    8  C   UNL     1      12.505   6.124  10.228  1.00  0.00     0.098 A 
BRANCH   5   9
HETATM    9  C   UNL     1      15.626   6.064  13.103  1.00  0.00     0.012 C 
HETATM   10  C   UNL     1      16.753   5.318  13.016  1.00  0.00     0.012 C 
BRANCH  10  11
HETATM   11  C   UNL     1      17.832   5.313  13.992  1.00  0.00    -0.036 A 
HETATM   12  C   UNL     1      18.796   4.307  13.961  1.00  0.00     0.011 A 
HETATM   13  C   UNL     1      19.830   4.302  14.897  1.00  0.00     0.001 A 
HETATM   14  C   UNL     1      19.900   5.306  15.863  1.00  0.00     0.000 A 
HETATM   15  C   UNL     1      18.936   6.313  15.894  1.00  0.00     0.001 A 
HETATM   16  C   UNL     1      17.902   6.318  14.958  1.00  0.00     0.011 A 
ENDBRANCH  10  11
ENDBRANCH   5   9
BRANCH   8  17
HETATM   17  O   UNL     1      11.494   6.142   9.315  1.00  0.00    -0.358 OA
HETATM   18  H   UNL     1      10.678   5.723   9.510  1.00  0.00     0.217 HD
ENDBRANCH   8  17
ENDBRANCH   1   3
TORSDOF 4
ENDMDL
MODEL 5
REMARK VINA RESULT:      -6.7      3.090      7.191
REMARK  4 active torsions:
REMARK  status: ('A' for Active; 'I' for Inactive)
REMARK    1  A    between atoms: O_1  and  C_9 
REMARK    2  A    between atoms: O_2  and  C_10 
REMARK    3  A    between atoms: C_3  and  C_5 
REMARK    4  A    between atoms: C_4  and  C_8 
ROOT
HETATM    1  O   UNL     1      11.242   5.158  10.385  1.00  0.00    -0.358 OA
HETATM    2  H   UNL     1      10.961   4.297  10.628  1.00  0.00     0.217 HD
ENDROOT
BRANCH   1   3
HETATM    3  C   UNL     1      12.498   5.580  10.704  1.00  0.00     0.099 A 
HETATM    4  C   UNL     1      12.845   5.745  12.045  1.00  0.00     0.050 A 
HETATM    5  C   UNL     1      14.122   6.175  12.366  1.00  0.00    -0.033 A 
HETATM    6  C   UNL     1      15.061   6.445  11.384  1.00  0.00     0.014 A 
HETATM    7  C   UNL     1      14.713   6.279  10.042  1.00  0.00     0.040 A 
HETATM    8  C   UNL     1      13.432   5.847   9.704  1.00  0.00     0.098 A 
BRANCH   5   9
HETATM    9  C   UNL     1      14.491   6.349  13.782  1.00  0.00     0.012 C 
HETATM   10  C   UNL     1      15.528   5.736  14.399  1.00  0.00     0.012 C 
BRANCH  10  11
HETATM   11  C   UNL     1      15.904   5.923  15.793  1.00  0.00    -0.036 A 
HETATM   12  C   UNL     1      15.295   6.921  16.551  1.00  0.00     0.011 A 
HETATM   13  C   UNL     1      15.655   7.100  17.887  1.00  0.00     0.001 A 
HETATM   14  C   UNL     1      16.625   6.279  18.463  1.00  0.00     0.000 A 
HETATM   15  C   UNL     1      17.234   5.279  17.705  1.00  0.00     0.001 A 
HETATM   16  C   UNL     1      16.873   5.101  16.369  1.00  0.00     0.011 A 
ENDBRANCH  10  11
ENDBRANCH   5   9
BRANCH   8  17
HETATM   17  O   UNL     1      13.103   5.691   8.391  1.00  0.00    -0.358 OA
HETATM   18  H   UNL     1      12.678   4.906   8.104  1.00  0.00     0.217 HD
ENDBRANCH   8  17
ENDBRANCH   1   3
TORSDOF 4
ENDMDL
MODEL 6
REMARK VINA RESULT:      -6.6      1.653      2.901
REMARK  4 active torsions:
REMARK  status: ('A' for Active; 'I' for Inactive)
REMARK    1  A    between atoms: O_1  and  C_9 
REMARK    2  A    between atoms: O_2  and  C_10 
REMARK    3  A    between atoms: C_3  and  C_5 
REMARK    4  A    between atoms: C_4  and  C_8 
ROOT
HETATM    1  O   UNL     1      14.192   7.282  18.540  1.00  0.00    -0.358 OA
HETATM    2  H   UNL     1      13.596   6.703  18.976  1.00  0.00     0.217 HD
ENDROOT
BRANCH   1   3
HETATM    3  C   UNL     1      15.096   6.784  17.651  1.00  0.00     0.099 A 
HETATM    4  C   UNL     1      14.757   6.705  16.300  1.00  0.00     0.050 A 
HETATM    5  C   UNL     1      15.680   6.198  15.399  1.00  0.00    -0.033 A 
HETATM    6  C   UNL     1      16.930   5.768  15.811  1.00  0.00     0.014 A 
HETATM    7  C   UNL     1      17.269   5.847  17.162  1.00  0.00     0.040 A 
HETATM    8  C   UNL     1      16.352   6.355  18.081  1.00  0.00     0.098 A 
BRANCH   5   9
HETATM    9  C   UNL     1      15.323   6.115  13.971  1.00  0.00     0.012 C 
HETATM   10  C   UNL     1      14.064   6.178  13.477  1.00  0.00     0.012 C 
BRANCH  10  11
HETATM   11  C   UNL     1      13.713   6.116  12.066  1.00  0.00    -0.036 A 
HETATM   12  C   UNL     1      12.375   6.046  11.682  1.00  0.00     0.011 A 
HETATM   13  C   UNL     1      12.039   5.987  10.330  1.00  0.00     0.001 A 
HETATM   14  C   UNL     1      13.043   5.998   9.362  1.00  0.00     0.000 A 
HETATM   15  C   UNL     1      14.382   6.068   9.745  1.00  0.00     0.001 A 
HETATM   16  C   UNL     1      14.717   6.127  11.098  1.00  0.00     0.011 A 
ENDBRANCH  10  11
ENDBRANCH   5   9
BRANCH   8  17
HETATM   17  O   UNL     1      16.693   6.426  19.398  1.00  0.00    -0.358 OA
HETATM   18  H   UNL     1      17.531   6.115  19.683  1.00  0.00     0.217 HD
ENDBRANCH   8  17
ENDBRANCH   1   3
TORSDOF 4
ENDMDL
MODEL 7
REMARK VINA RESULT:      -6.6      3.385      7.355
REMARK  4 active torsions:
REMARK  status: ('A' for Active; 'I' for Inactive)
REMARK    1  A    between atoms: O_1  and  C_9 
REMARK    2  A    between atoms: O_2  and  C_10 
REMARK    3  A    between atoms: C_3  and  C_5 
REMARK    4  A    between atoms: C_4  and  C_8 
ROOT
HETATM    1  O   UNL     1      14.141   6.084   8.480  1.00  0.00    -0.358 OA
HETATM    2  H   UNL     1      14.245   5.274   8.021  1.00  0.00     0.217 HD
ENDROOT
BRANCH   1   3
HETATM    3  C   UNL     1      13.849   6.081   9.811  1.00  0.00     0.099 A 
HETATM    4  C   UNL     1      14.889   6.059  10.740  1.00  0.00     0.050 A 
HETATM    5  C   UNL     1      14.589   6.054  12.093  1.00  0.00    -0.033 A 
HETATM    6  C   UNL     1      13.278   6.070  12.541  1.00  0.00     0.014 A 
HETATM    7  C   UNL     1      12.238   6.091  11.611  1.00  0.00     0.040 A 
HETATM    8  C   UNL     1      12.524   6.097  10.247  1.00  0.00     0.098 A 
BRANCH   5   9
HETATM    9  C   UNL     1      15.687   6.033  13.076  1.00  0.00     0.012 C 
HETATM   10  C   UNL     1      15.530   6.027  14.421  1.00  0.00     0.012 C 
BRANCH  10  11
HETATM   11  C   UNL     1      16.613   5.986  15.391  1.00  0.00    -0.036 A 
HETATM   12  C   UNL     1      16.368   5.555  16.694  1.00  0.00     0.011 A 
HETATM   13  C   UNL     1      17.407   5.515  17.624  1.00  0.00     0.001 A 
HETATM   14  C   UNL     1      18.692   5.907  17.249  1.00  0.00     0.000 A 
HETATM   15  C   UNL     1      18.938   6.338  15.946  1.00  0.00     0.001 A 
HETATM   16  C   UNL     1      17.899   6.377  15.016  1.00  0.00     0.011 A 
ENDBRANCH  10  11
ENDBRANCH   5   9
BRANCH   8  17
HETATM   17  O   UNL     1      11.500   6.116   9.348  1.00  0.00    -0.358 OA
HETATM   18  H   UNL     1      11.126   6.933   9.082  1.00  0.00     0.217 HD
ENDBRANCH   8  17
ENDBRANCH   1   3
TORSDOF 4
ENDMDL
MODEL 8
REMARK VINA RESULT:      -6.6      3.105      4.291
REMARK  4 active torsions:
REMARK  status: ('A' for Active; 'I' for Inactive)
REMARK    1  A    between atoms: O_1  and  C_9 
REMARK    2  A    between atoms: O_2  and  C_10 
REMARK    3  A    between atoms: C_3  and  C_5 
REMARK    4  A    between atoms: C_4  and  C_8 
ROOT
HETATM    1  O   UNL     1      18.496   6.952  17.111  1.00  0.00    -0.358 OA
HETATM    2  H   UNL     1      19.222   6.836  17.693  1.00  0.00     0.217 HD
ENDROOT
BRANCH   1   3
HETATM    3  C   UNL     1      18.383   6.171  16.000  1.00  0.00     0.099 A 
HETATM    4  C   UNL     1      17.211   6.216  15.246  1.00  0.00     0.050 A 
HETATM    5  C   UNL     1      17.099   5.420  14.118  1.00  0.00    -0.033 A 
HETATM    6  C   UNL     1      18.127   4.580  13.723  1.00  0.00     0.014 A 
HETATM    7  C   UNL     1      19.300   4.534  14.477  1.00  0.00     0.040 A 
HETATM    8  C   UNL     1      19.427   5.330  15.615  1.00  0.00     0.098 A 
BRANCH   5   9
HETATM    9  C   UNL     1      15.860   5.468  13.320  1.00  0.00     0.012 C 
HETATM   10  C   UNL     1      15.750   6.007  12.083  1.00  0.00     0.012 C 
BRANCH  10  11
HETATM   11  C   UNL     1      14.532   6.037  11.287  1.00  0.00    -0.036 A 
HETATM   12  C   UNL     1      14.608   6.038   9.896  1.00  0.00     0.011 A 
HETATM   13  C   UNL     1      13.440   6.067   9.133  1.00  0.00     0.001 A 
HETATM   14  C   UNL     1      12.197   6.094   9.764  1.00  0.00     0.000 A 
HETATM   15  C   UNL     1      12.120   6.093  11.157  1.00  0.00     0.001 A 
HETATM   16  C   UNL     1      13.288   6.064  11.919  1.00  0.00     0.011 A 
ENDBRANCH  10  11
ENDBRANCH   5   9
BRANCH   8  17
HETATM   17  O   UNL     1      20.577   5.275  16.345  1.00  0.00    -0.358 OA
HETATM   18  H   UNL     1      21.396   5.495  15.945  1.00  0.00     0.217 HD
ENDBRANCH   8  17
ENDBRANCH   1   3
TORSDOF 4
ENDMDL
MODEL 9
REMARK VINA RESULT:      -6.5      3.594      4.820
REMARK  4 active torsions:
REMARK  status: ('A' for Active; 'I' for Inactive)
REMARK    1  A    between atoms: O_1  and  C_9 
REMARK    2  A    between atoms: O_2  and  C_10 
REMARK    3  A    between atoms: C_3  and  C_5 
REMARK    4  A    between atoms: C_4  and  C_8 
ROOT
HETATM    1  O   UNL     1      20.357   3.383  14.383  1.00  0.00    -0.358 OA
HETATM    2  H   UNL     1      20.764   3.335  13.540  1.00  0.00     0.217 HD
ENDROOT
BRANCH   1   3
HETATM    3  C   UNL     1      19.421   4.341  14.632  1.00  0.00     0.099 A 
HETATM    4  C   UNL     1      18.238   4.352  13.893  1.00  0.00     0.050 A 
HETATM    5  C   UNL     1      17.288   5.328  14.149  1.00  0.00    -0.033 A 
HETATM    6  C   UNL     1      17.489   6.293  15.122  1.00  0.00     0.014 A 
HETATM    7  C   UNL     1      18.673   6.282  15.861  1.00  0.00     0.040 A 
HETATM    8  C   UNL     1      19.638   5.306  15.615  1.00  0.00     0.098 A 
BRANCH   5   9
HETATM    9  C   UNL     1      16.037   5.340  13.370  1.00  0.00     0.012 C 
HETATM   10  C   UNL     1      15.825   6.065  12.246  1.00  0.00     0.012 C 
BRANCH  10  11
HETATM   11  C   UNL     1      14.597   6.061  11.466  1.00  0.00    -0.036 A 
HETATM   12  C   UNL     1      13.361   6.045  12.110  1.00  0.00     0.011 A 
HETATM   13  C   UNL     1      12.183   6.042  11.362  1.00  0.00     0.001 A 
HETATM   14  C   UNL     1      12.244   6.054   9.969  1.00  0.00     0.000 A 
HETATM   15  C   UNL     1      13.480   6.071   9.323  1.00  0.00     0.001 A 
HETATM   16  C   UNL     1      14.657   6.075  10.072  1.00  0.00     0.011 A 
ENDBRANCH  10  11
ENDBRANCH   5   9
BRANCH   8  17
HETATM   17  O   UNL     1      20.791   5.307  16.342  1.00  0.00    -0.358 OA
HETATM   18  H   UNL     1      20.998   6.038  16.891  1.00  0.00     0.217 HD
ENDBRANCH   8  17
ENDBRANCH   1   3
TORSDOF 4
ENDMDL
