MODEL 1
REMARK VINA RESULT:      -7.5      0.000      0.000
REMARK  4 active torsions:
REMARK  status: ('A' for Active; 'I' for Inactive)
REMARK    1  A    between atoms: O_1  and  C_9 
REMARK    2  A    between atoms: O_2  and  C_10 
REMARK    3  A    between atoms: C_3  and  C_5 
REMARK    4  A    between atoms: C_4  and  C_8 
ROOT
HETATM    1  O   UNL     1      11.506   6.769  16.329  1.00  0.00    -0.358 OA
HETATM    2  H   UNL     1      10.687   6.896  15.892  1.00  0.00     0.217 HD
ENDROOT
BRANCH   1   3
HETATM    3  C   UNL     1      12.641   6.564  15.604  1.00  0.00     0.099 A 
HETATM    4  C   UNL     1      12.546   6.343  14.230  1.00  0.00     0.050 A 
HETATM    5  C   UNL     1      13.703   6.135  13.496  1.00  0.00    -0.033 A 
HETATM    6  C   UNL     1      14.951   6.141  14.097  1.00  0.00     0.014 A 
HETATM    7  C   UNL     1      15.045   6.362  15.472  1.00  0.00     0.040 A 
HETATM    8  C   UNL     1      13.891   6.574  16.224  1.00  0.00     0.098 A 
BRANCH   5   9
HETATM    9  C   UNL     1      13.603   5.902  12.044  1.00  0.00     0.012 C 
HETATM   10  C   UNL     1      12.461   5.968  11.320  1.00  0.00     0.012 C 
BRANCH  10  11
HETATM   11  C   UNL     1      12.366   5.758   9.883  1.00  0.00    -0.036 A 
HETATM   12  C   UNL     1      12.503   4.476   9.355  1.00  0.00     0.011 A 
HETATM   13  C   UNL     1      12.411   4.274   7.978  1.00  0.00     0.001 A 
HETATM   14  C   UNL     1      12.184   5.357   7.129  1.00  0.00     0.000 A 
HETATM   15  C   UNL     1      12.047   6.641   7.657  1.00  0.00     0.001 A 
HETATM   16  C   UNL     1      12.138   6.842   9.034  1.00  0.00     0.011 A 
ENDBRANCH  10  11
ENDBRANCH   5   9
BRANCH   8  17
HETATM   17  O   UNL     1      13.996   6.787  17.566  1.00  0.00    -0.358 OA
HETATM   18  H   UNL     1      13.944   7.658  17.907  1.00  0.00     0.217 HD
ENDBRANCH   8  17
ENDBRANCH   1   3
TORSDOF 4
ENDMDL
MODEL 2
REMARK VINA RESULT:      -7.2      3.591      7.086
REMARK  4 active torsions:
REMARK  status: ('A' for Active; 'I' for Inactive)
REMARK    1  A    between atoms: O_1  and  C_9 
REMARK    2  A    between atoms: O_2  and  C_10 
REMARK    3  A    between atoms: C_3  and  C_5 
REMARK    4  A    between atoms: C_4  and  C_8 
ROOT
HETATM    1  O   UNL     1      11.051   5.018  11.123  1.00  0.00    -0.358 OA
HETATM    2  H   UNL     1      10.347   5.383  10.623  1.00  0.00     0.217 HD
ENDROOT
BRANCH   1   3
HETATM    3  C   UNL     1      12.332   5.419  10.886  1.00  0.00     0.099 A 
HETATM    4  C   UNL     1      13.260   5.397  11.927  1.00  0.00     0.050 A 
HETATM    5  C   UNL     1      14.561   5.806  11.683  1.00  0.00    -0.033 A 
HETATM    6  C   UNL     1      14.960   6.235  10.428  1.00  0.00     0.014 A 
HETATM    7  C   UNL     1      14.031   6.256   9.387  1.00  0.00     0.040 A 
HETATM    8  C   UNL     1      12.718   5.848   9.617  1.00  0.00     0.098 A 
BRANCH   5   9
HETATM    9  C   UNL     1      15.543   5.782  12.782  1.00  0.00     0.012 C 
HETATM   10  C   UNL     1      16.843   5.421  12.660  1.00  0.00     0.012 C 
BRANCH  10  11
HETATM   11  C   UNL     1      17.817   5.417  13.741  1.00  0.00    -0.036 A 
HETATM   12  C   UNL     1      17.778   6.410  14.718  1.00  0.00     0.011 A 
HETATM   13  C   UNL     1      18.712   6.406  15.755  1.00  0.00     0.001 A 
HETATM   14  C   UNL     1      19.684   5.407  15.812  1.00  0.00     0.000 A 
HETATM   15  C   UNL     1      19.723   4.413  14.834  1.00  0.00     0.001 A 
HETATM   16  C   UNL     1      18.789   4.418  13.798  1.00  0.00     0.011 A 
ENDBRANCH  10  11
ENDBRANCH   5   9
BRANCH   8  17
HETATM   17  O   UNL     1      11.819   5.876   8.593  1.00  0.00    -0.358 OA
HETATM   18  H   UNL     1      11.862   6.557   7.950  1.00  0.00     0.217 HD
ENDBRANCH   8  17
ENDBRANCH   1   3
TORSDOF 4
ENDMDL
MODEL 3
REMARK VINA RESULT:      -7.1      3.050      7.058
REMARK  4 active torsions:
REMARK  status: ('A' for Active; 'I' for Inactive)
REMARK    1  A    between atoms: O_1  and  C_9 
REMARK    2  A    between atoms: O_2  and  C_10 
REMARK    3  A    between atoms: C_3  and  C_5 
REMARK    4  A    between atoms: C_4  and  C_8 
ROOT
HETATM    1  O   UNL     1      11.046   4.980  11.135  1.00  0.00    -0.358 OA
HETATM    2  H   UNL     1      10.337   5.169  10.552  1.00  0.00     0.217 HD
ENDROOT
BRANCH   1   3
HETATM    3  C   UNL     1      12.308   5.393  10.830  1.00  0.00     0.099 A 
HETATM    4  C   UNL     1      13.239   5.567  11.854  1.00  0.00     0.050 A 
HETATM    5  C   UNL     1      14.521   5.988  11.539  1.00  0.00    -0.033 A 
HETATM    6  C   UNL     1      14.898   6.239  10.231  1.00  0.00     0.014 A 
HETATM    7  C   UNL     1      13.966   6.065   9.206  1.00  0.00     0.040 A 
HETATM    8  C   UNL     1      12.672   5.642   9.507  1.00  0.00     0.098 A 
BRANCH   5   9
HETATM    9  C   UNL     1      15.506   6.171  12.621  1.00  0.00     0.012 C 
HETATM   10  C   UNL     1      15.310   5.839  13.919  1.00  0.00     0.012 C 
BRANCH  10  11
HETATM   11  C   UNL     1      16.290   6.001  14.983  1.00  0.00    -0.036 A 
HETATM   12  C   UNL     1      17.625   6.250  14.670  1.00  0.00     0.011 A 
HETATM   13  C   UNL     1      18.564   6.406  15.690  1.00  0.00     0.001 A 
HETATM   14  C   UNL     1      18.165   6.313  17.023  1.00  0.00     0.000 A 
HETATM   15  C   UNL     1      16.829   6.064  17.337  1.00  0.00     0.001 A 
HETATM   16  C   UNL     1      15.891   5.909  16.316  1.00  0.00     0.011 A 
ENDBRANCH  10  11
ENDBRANCH   5   9
BRANCH   8  17
HETATM   17  O   UNL     1      11.771   5.477   8.498  1.00  0.00    -0.358 OA
HETATM   18  H   UNL     1      11.844   5.989   7.716  1.00  0.00     0.217 HD
ENDBRANCH   8  17
ENDBRANCH   1   3
TORSDOF 4
ENDMDL
MODEL 4
REMARK VINA RESULT:      -7.1      0.735      2.030
REMARK  4 active torsions:
REMARK  status: ('A' for Active; 'I' for Inactive)
REMARK    1  A    between atoms: O_1  and  C_9 
REMARK    2  A    between atoms: O_2  and  C_10 
REMARK    3  A    between atoms: C_3  and  C_5 
REMARK    4  A    between atoms: C_4  and  C_8 
ROOT
HETATM    1  O   UNL     1      15.458   5.511  16.402  1.00  0.00    -0.358 OA
HETATM    2  H   UNL     1      15.352   5.026  17.198  1.00  0.00     0.217 HD
ENDROOT
BRANCH   1   3
HETATM    3  C   UNL     1      14.365   5.855  15.665  1.00  0.00     0.099 A 
HETATM    4  C   UNL     1      14.348   5.583  14.297  1.00  0.00     0.050 A 
HETATM    5  C   UNL     1      13.236   5.936  13.550  1.00  0.00    -0.033 A 
HETATM    6  C   UNL     1      12.141   6.554  14.133  1.00  0.00     0.014 A 
HETATM    7  C   UNL     1      12.159   6.826  15.501  1.00  0.00     0.040 A 
HETATM    8  C   UNL     1      13.271   6.476  16.266  1.00  0.00     0.098 A 
BRANCH   5   9
HETATM    9  C   UNL     1      13.216   5.648  12.105  1.00  0.00     0.012 C 
HETATM   10  C   UNL     1      12.279   6.093  11.233  1.00  0.00     0.012 C 
BRANCH  10  11
HETATM   11  C   UNL     1      12.271   5.825   9.803  1.00  0.00    -0.036 A 
HETATM   12  C   UNL     1      12.043   6.862   8.900  1.00  0.00     0.011 A 
HETATM   13  C   UNL     1      12.035   6.605   7.529  1.00  0.00     0.001 A 
HETATM   14  C   UNL     1      12.256   5.310   7.062  1.00  0.00     0.000 A 
HETATM   15  C   UNL     1      12.484   4.271   7.965  1.00  0.00     0.001 A 
HETATM   16  C   UNL     1      12.493   4.529   9.336  1.00  0.00     0.011 A 
ENDBRANCH  10  11
ENDBRANCH   5   9
BRANCH   8  17
HETATM   17  O   UNL     1      13.277   6.749  17.601  1.00  0.00    -0.358 OA
HETATM   18  H   UNL     1      12.725   7.424  17.944  1.00  0.00     0.217 HD
ENDBRANCH   8  17
ENDBRANCH   1   3
TORSDOF 4
ENDMDL
MODEL 5
REMARK VINA RESULT:      -6.9      3.846      7.252
REMARK  4 active torsions:
REMARK  status: ('A' for Active; 'I' for Inactive)
REMARK    1  A    between atoms: O_1  and  C_9 
REMARK    2  A    between atoms: O_2  and  C_10 
REMARK    3  A    between atoms: C_3  and  C_5 
REMARK    4  A    between atoms: C_4  and  C_8 
ROOT
HETATM    1  O   UNL     1      14.139   6.094   8.483  1.00  0.00    -0.358 OA
HETATM    2  H   UNL     1      13.466   5.950   7.846  1.00  0.00     0.217 HD
ENDROOT
BRANCH   1   3
HETATM    3  C   UNL     1      13.832   6.097   9.810  1.00  0.00     0.099 A 
HETATM    4  C   UNL     1      14.861   6.067  10.752  1.00  0.00     0.050 A 
HETATM    5  C   UNL     1      14.544   6.070  12.101  1.00  0.00    -0.033 A 
HETATM    6  C   UNL     1      13.229   6.100  12.534  1.00  0.00     0.014 A 
HETATM    7  C   UNL     1      12.200   6.130  11.591  1.00  0.00     0.040 A 
HETATM    8  C   UNL     1      12.503   6.128  10.230  1.00  0.00     0.098 A 
BRANCH   5   9
HETATM    9  C   UNL     1      15.631   6.039  13.097  1.00  0.00     0.012 C 
HETATM   10  C   UNL     1      16.756   5.292  13.001  1.00  0.00     0.012 C 
BRANCH  10  11
HETATM   11  C   UNL     1      17.837   5.277  13.975  1.00  0.00    -0.036 A 
HETATM   12  C   UNL     1      17.913   6.271  14.949  1.00  0.00     0.011 A 
HETATM   13  C   UNL     1      18.949   6.257  15.882  1.00  0.00     0.001 A 
HETATM   14  C   UNL     1      19.910   5.247  15.840  1.00  0.00     0.000 A 
HETATM   15  C   UNL     1      19.835   4.251  14.866  1.00  0.00     0.001 A 
HETATM   16  C   UNL     1      18.798   4.266  13.933  1.00  0.00     0.011 A 
ENDBRANCH  10  11
ENDBRANCH   5   9
BRANCH   8  17
HETATM   17  O   UNL     1      11.489   6.156   9.320  1.00  0.00    -0.358 OA
HETATM   18  H   UNL     1      11.345   5.420   8.757  1.00  0.00     0.217 HD
ENDBRANCH   8  17
ENDBRANCH   1   3
TORSDOF 4
ENDMDL
MODEL 6
REMARK VINA RESULT:      -6.7      1.695      2.961
REMARK  4 active torsions:
REMARK  status: ('A' for Active; 'I' for Inactive)
REMARK    1  A    between atoms: O_1  and  C_9 
REMARK    2  A    between atoms: O_2  and  C_10 
REMARK    3  A    between atoms: C_3  and  C_5 
REMARK    4  A    between atoms: C_4  and  C_8 
ROOT
HETATM    1  O   UNL     1      14.160   7.233  18.643  1.00  0.00    -0.358 OA
HETATM    2  H   UNL     1      13.409   6.690  18.783  1.00  0.00     0.217 HD
ENDROOT
BRANCH   1   3
HETATM    3  C   UNL     1      15.084   6.888  17.702  1.00  0.00     0.099 A 
HETATM    4  C   UNL     1      14.666   6.606  16.402  1.00  0.00     0.050 A 
HETATM    5  C   UNL     1      15.608   6.254  15.449  1.00  0.00    -0.033 A 
HETATM    6  C   UNL     1      16.955   6.176  15.760  1.00  0.00     0.014 A 
HETATM    7  C   UNL     1      17.373   6.458  17.062  1.00  0.00     0.040 A 
HETATM    8  C   UNL     1      16.437   6.814  18.032  1.00  0.00     0.098 A 
BRANCH   5   9
HETATM    9  C   UNL     1      15.168   5.957  14.074  1.00  0.00     0.012 C 
HETATM   10  C   UNL     1      14.184   6.611  13.412  1.00  0.00     0.012 C 
BRANCH  10  11
HETATM   11  C   UNL     1      13.762   6.331  12.047  1.00  0.00    -0.036 A 
HETATM   12  C   UNL     1      14.703   6.300  11.019  1.00  0.00     0.011 A 
HETATM   13  C   UNL     1      14.299   6.031   9.711  1.00  0.00     0.001 A 
HETATM   14  C   UNL     1      12.953   5.793   9.433  1.00  0.00     0.000 A 
HETATM   15  C   UNL     1      12.011   5.824  10.462  1.00  0.00     0.001 A 
HETATM   16  C   UNL     1      12.416   6.092  11.769  1.00  0.00     0.011 A 
ENDBRANCH  10  11
ENDBRANCH   5   9
BRANCH   8  17
HETATM   17  O   UNL     1      16.857   7.085  19.299  1.00  0.00    -0.358 OA
HETATM   18  H   UNL     1      16.609   6.521  20.006  1.00  0.00     0.217 HD
ENDBRANCH   8  17
ENDBRANCH   1   3
TORSDOF 4
ENDMDL
MODEL 7
REMARK VINA RESULT:      -6.6      3.295      7.366
REMARK  4 active torsions:
REMARK  status: ('A' for Active; 'I' for Inactive)
REMARK    1  A    between atoms: O_1  and  C_9 
REMARK    2  A    between atoms: O_2  and  C_10 
REMARK    3  A    between atoms: C_3  and  C_5 
REMARK    4  A    between atoms: C_4  and  C_8 
ROOT
HETATM    1  O   UNL     1      14.424   6.079   8.777  1.00  0.00    -0.358 OA
HETATM    2  H   UNL     1      14.247   6.788   8.190  1.00  0.00     0.217 HD
ENDROOT
BRANCH   1   3
HETATM    3  C   UNL     1      13.907   6.094  10.038  1.00  0.00     0.099 A 
HETATM    4  C   UNL     1      14.771   6.087  11.133  1.00  0.00     0.050 A 
HETATM    5  C   UNL     1      14.242   6.101  12.413  1.00  0.00    -0.033 A 
HETATM    6  C   UNL     1      12.874   6.121  12.629  1.00  0.00     0.014 A 
HETATM    7  C   UNL     1      12.010   6.127  11.533  1.00  0.00     0.040 A 
HETATM    8  C   UNL     1      12.527   6.114  10.238  1.00  0.00     0.098 A 
BRANCH   5   9
HETATM    9  C   UNL     1      15.154   6.095  13.571  1.00  0.00     0.012 C 
HETATM   10  C   UNL     1      14.813   6.445  14.834  1.00  0.00     0.012 C 
BRANCH  10  11
HETATM   11  C   UNL     1      15.708   6.421  15.981  1.00  0.00    -0.036 A 
HETATM   12  C   UNL     1      17.041   6.048  15.818  1.00  0.00     0.011 A 
HETATM   13  C   UNL     1      17.900   6.025  16.917  1.00  0.00     0.001 A 
HETATM   14  C   UNL     1      17.423   6.375  18.180  1.00  0.00     0.000 A 
HETATM   15  C   UNL     1      16.089   6.748  18.345  1.00  0.00     0.001 A 
HETATM   16  C   UNL     1      15.231   6.772  17.245  1.00  0.00     0.011 A 
ENDBRANCH  10  11
ENDBRANCH   5   9
BRANCH   8  17
HETATM   17  O   UNL     1      11.673   6.118   9.176  1.00  0.00    -0.358 OA
HETATM   18  H   UNL     1      10.841   5.692   9.243  1.00  0.00     0.217 HD
ENDBRANCH   8  17
ENDBRANCH   1   3
TORSDOF 4
ENDMDL
MODEL 8
REMARK VINA RESULT:      -6.6      3.301      7.392
REMARK  4 active torsions:
REMARK  status: ('A' for Active; 'I' for Inactive)
REMARK    1  A    between atoms: O_1  and  C_9 
REMARK    2  A    between atoms: O_2  and  C_10 
REMARK    3  A    between atoms: C_3  and  C_5 
REMARK    4  A    between atoms: C_4  and  C_8 
ROOT
HETATM    1  O   UNL     1      14.398   6.128   8.806  1.00  0.00    -0.358 OA
HETATM    2  H   UNL     1      14.147   6.781   8.183  1.00  0.00     0.217 HD
ENDROOT
BRANCH   1   3
HETATM    3  C   UNL     1      13.848   6.129  10.053  1.00  0.00     0.099 A 
HETATM    4  C   UNL     1      14.683   6.129  11.170  1.00  0.00     0.050 A 
HETATM    5  C   UNL     1      14.120   6.130  12.437  1.00  0.00    -0.033 A 
HETATM    6  C   UNL     1      12.746   6.129  12.616  1.00  0.00     0.014 A 
HETATM    7  C   UNL     1      11.911   6.129  11.498  1.00  0.00     0.040 A 
HETATM    8  C   UNL     1      12.463   6.129  10.217  1.00  0.00     0.098 A 
BRANCH   5   9
HETATM    9  C   UNL     1      15.001   6.131  13.618  1.00  0.00     0.012 C 
HETATM   10  C   UNL     1      14.610   5.848  14.883  1.00  0.00     0.012 C 
BRANCH  10  11
HETATM   11  C   UNL     1      15.484   5.830  16.047  1.00  0.00    -0.036 A 
HETATM   12  C   UNL     1      15.437   6.872  16.971  1.00  0.00     0.011 A 
HETATM   13  C   UNL     1      16.275   6.855  18.086  1.00  0.00     0.001 A 
HETATM   14  C   UNL     1      17.159   5.793  18.276  1.00  0.00     0.000 A 
HETATM   15  C   UNL     1      17.207   4.750  17.351  1.00  0.00     0.001 A 
HETATM   16  C   UNL     1      16.368   4.768  16.237  1.00  0.00     0.011 A 
ENDBRANCH  10  11
ENDBRANCH   5   9
BRANCH   8  17
HETATM   17  O   UNL     1      11.637   6.127   9.133  1.00  0.00    -0.358 OA
HETATM   18  H   UNL     1      10.885   5.568   9.119  1.00  0.00     0.217 HD
ENDBRANCH   8  17
ENDBRANCH   1   3
TORSDOF 4
ENDMDL
MODEL 9
REMARK VINA RESULT:      -6.6      2.917      4.019
REMARK  4 active torsions:
REMARK  status: ('A' for Active; 'I' for Inactive)
REMARK    1  A    between atoms: O_1  and  C_9 
REMARK    2  A    between atoms: O_2  and  C_10 
REMARK    3  A    between atoms: C_3  and  C_5 
REMARK    4  A    between atoms: C_4  and  C_8 
ROOT
HETATM    1  O   UNL     1      17.874   6.801  17.281  1.00  0.00    -0.358 OA
HETATM    2  H   UNL     1      17.158   7.375  17.471  1.00  0.00     0.217 HD
ENDROOT
BRANCH   1   3
HETATM    3  C   UNL     1      17.926   6.153  16.083  1.00  0.00     0.099 A 
HETATM    4  C   UNL     1      16.803   6.149  15.256  1.00  0.00     0.050 A 
HETATM    5  C   UNL     1      16.860   5.488  14.040  1.00  0.00    -0.033 A 
HETATM    6  C   UNL     1      18.008   4.832  13.628  1.00  0.00     0.014 A 
HETATM    7  C   UNL     1      19.132   4.836  14.456  1.00  0.00     0.040 A 
HETATM    8  C   UNL     1      19.090   5.497  15.683  1.00  0.00     0.098 A 
BRANCH   5   9
HETATM    9  C   UNL     1      15.674   5.484  13.164  1.00  0.00     0.012 C 
HETATM   10  C   UNL     1      15.590   6.101  11.962  1.00  0.00     0.012 C 
BRANCH  10  11
HETATM   11  C   UNL     1      14.426   6.081  11.089  1.00  0.00    -0.036 A 
HETATM   12  C   UNL     1      14.592   6.016   9.706  1.00  0.00     0.011 A 
HETATM   13  C   UNL     1      13.476   5.996   8.869  1.00  0.00     0.001 A 
HETATM   14  C   UNL     1      12.194   6.040   9.417  1.00  0.00     0.000 A 
HETATM   15  C   UNL     1      12.028   6.104  10.801  1.00  0.00     0.001 A 
HETATM   16  C   UNL     1      13.144   6.124  11.637  1.00  0.00     0.011 A 
ENDBRANCH  10  11
ENDBRANCH   5   9
BRANCH   8  17
HETATM   17  O   UNL     1      20.193   5.492  16.483  1.00  0.00    -0.358 OA
HETATM   18  H   UNL     1      21.009   5.170  16.154  1.00  0.00     0.217 HD
ENDBRANCH   8  17
ENDBRANCH   1   3
TORSDOF 4
ENDMDL
