MODEL 1
REMARK VINA RESULT:      -7.0      0.000      0.000
REMARK  11 active torsions:
REMARK  status: ('A' for Active; 'I' for Inactive)
REMARK    1  A    between atoms: C1_1  and  C2_2 
REMARK    2  A    between atoms: C1_1  and  C10_13 
REMARK    3  A    between atoms: C2_2  and  C3_3 
REMARK    4  A    between atoms: C3_3  and  C4_4 
REMARK    5  A    between atoms: C6_6  and  O1_7 
REMARK    6  A    between atoms: C7_8  and  O2_9 
REMARK    7  A    between atoms: C10_13  and  O4_14 
REMARK    8  A    between atoms: C10_13  and  C11_15 
REMARK    9  A    between atoms: C11_15  and  O5_16 
REMARK   10  A    between atoms: C11_15  and  C12_17 
REMARK   11  A    between atoms: C12_17  and  O6_18 
ROOT
HETATM    1  C1  UNL     1     -51.604  47.288   6.735  1.00  0.00     0.158 C 
HETATM    2  O3  UNL     1     -50.698  48.125   6.674  1.00  0.00    -0.295 OA
ENDROOT
BRANCH   1   3
HETATM    3  C2  UNL     1     -51.989  46.662   8.064  1.00  0.00     0.086 C 
BRANCH   3   4
HETATM    4  C3  UNL     1     -53.389  47.045   8.537  1.00  0.00     0.046 C 
BRANCH   4   5
HETATM    5  C4  UNL     1     -53.421  48.285   9.401  1.00  0.00    -0.055 A 
HETATM    6  C5  UNL     1     -53.532  49.560   8.821  1.00  0.00     0.046 A 
HETATM    7  C6  UNL     1     -53.548  50.686   9.637  1.00  0.00     0.099 A 
HETATM    8  C7  UNL     1     -53.463  50.557  11.020  1.00  0.00     0.098 A 
HETATM    9  C8  UNL     1     -53.359  49.308  11.609  1.00  0.00     0.040 A 
HETATM   10  C9  UNL     1     -53.340  48.171  10.800  1.00  0.00     0.010 A 
BRANCH   7  11
HETATM   11  O1  UNL     1     -53.648  51.950   9.122  1.00  0.00    -0.358 OA
HETATM   12  H   UNL     1     -53.020  52.251   8.495  1.00  0.00     0.217 HD
ENDBRANCH   7  11
BRANCH   8  13
HETATM   13  O2  UNL     1     -53.480  51.670  11.811  1.00  0.00    -0.358 OA
HETATM   14  H   UNL     1     -52.681  52.118  12.007  1.00  0.00     0.217 HD
ENDBRANCH   8  13
ENDBRANCH   4   5
ENDBRANCH   3   4
ENDBRANCH   1   3
BRANCH   1  15
HETATM   15  C10 UNL     1     -52.408  46.886   5.496  1.00  0.00     0.218 C 
BRANCH  15  16
HETATM   16  O4  UNL     1     -51.750  47.422   4.348  1.00  0.00    -0.385 OA
HETATM   17  H   UNL     1     -52.362  47.421   3.595  1.00  0.00     0.210 HD
ENDBRANCH  15  16
BRANCH  15  18
HETATM   18  C11 UNL     1     -52.553  45.353   5.396  1.00  0.00     0.177 C 
BRANCH  18  19
HETATM   19  O5  UNL     1     -53.781  44.985   4.747  1.00  0.00    -0.390 OA
HETATM   20  H   UNL     1     -53.626  44.217   4.176  1.00  0.00     0.210 HD
ENDBRANCH  18  19
BRANCH  18  21
HETATM   21  C12 UNL     1     -51.418  44.738   4.568  1.00  0.00     0.198 C 
BRANCH  21  22
HETATM   22  O6  UNL     1     -51.859  44.525   3.225  1.00  0.00    -0.398 OA
HETATM   23  H   UNL     1     -52.132  43.601   3.117  1.00  0.00     0.209 HD
ENDBRANCH  21  22
ENDBRANCH  18  21
ENDBRANCH  15  18
ENDBRANCH   1  15
TORSDOF 11
ENDMDL
MODEL 2
REMARK VINA RESULT:      -6.9      1.389      2.053
REMARK  11 active torsions:
REMARK  status: ('A' for Active; 'I' for Inactive)
REMARK    1  A    between atoms: C1_1  and  C2_2 
REMARK    2  A    between atoms: C1_1  and  C10_13 
REMARK    3  A    between atoms: C2_2  and  C3_3 
REMARK    4  A    between atoms: C3_3  and  C4_4 
REMARK    5  A    between atoms: C6_6  and  O1_7 
REMARK    6  A    between atoms: C7_8  and  O2_9 
REMARK    7  A    between atoms: C10_13  and  O4_14 
REMARK    8  A    between atoms: C10_13  and  C11_15 
REMARK    9  A    between atoms: C11_15  and  O5_16 
REMARK   10  A    between atoms: C11_15  and  C12_17 
REMARK   11  A    between atoms: C12_17  and  O6_18 
ROOT
HETATM    1  C1  UNL     1     -53.441  45.347   7.491  1.00  0.00     0.158 C 
HETATM    2  O3  UNL     1     -54.498  44.724   7.630  1.00  0.00    -0.295 OA
ENDROOT
BRANCH   1   3
HETATM    3  C2  UNL     1     -53.284  46.743   8.069  1.00  0.00     0.086 C 
BRANCH   3   4
HETATM    4  C3  UNL     1     -53.539  46.815   9.572  1.00  0.00     0.046 C 
BRANCH   4   5
HETATM    5  C4  UNL     1     -53.522  48.221  10.125  1.00  0.00    -0.055 A 
HETATM    6  C5  UNL     1     -53.637  49.329   9.271  1.00  0.00     0.046 A 
HETATM    7  C6  UNL     1     -53.607  50.614   9.803  1.00  0.00     0.099 A 
HETATM    8  C7  UNL     1     -53.471  50.806  11.174  1.00  0.00     0.098 A 
HETATM    9  C8  UNL     1     -53.360  49.725  12.033  1.00  0.00     0.040 A 
HETATM   10  C9  UNL     1     -53.388  48.432  11.509  1.00  0.00     0.010 A 
BRANCH   7  11
HETATM   11  O1  UNL     1     -53.710  51.726   9.013  1.00  0.00    -0.358 OA
HETATM   12  H   UNL     1     -53.747  52.577   9.404  1.00  0.00     0.217 HD
ENDBRANCH   7  11
BRANCH   8  13
HETATM   13  O2  UNL     1     -53.442  52.072  11.686  1.00  0.00    -0.358 OA
HETATM   14  H   UNL     1     -52.686  52.611  11.562  1.00  0.00     0.217 HD
ENDBRANCH   8  13
ENDBRANCH   4   5
ENDBRANCH   3   4
ENDBRANCH   1   3
BRANCH   1  15
HETATM   15  C10 UNL     1     -52.232  44.727   6.787  1.00  0.00     0.218 C 
BRANCH  15  16
HETATM   16  O4  UNL     1     -52.188  43.339   7.121  1.00  0.00    -0.385 OA
HETATM   17  H   UNL     1     -52.636  43.197   7.970  1.00  0.00     0.210 HD
ENDBRANCH  15  16
BRANCH  15  18
HETATM   18  C11 UNL     1     -52.307  44.934   5.260  1.00  0.00     0.177 C 
BRANCH  18  19
HETATM   19  O5  UNL     1     -53.661  45.139   4.826  1.00  0.00    -0.390 OA
HETATM   20  H   UNL     1     -53.894  44.468   4.166  1.00  0.00     0.210 HD
ENDBRANCH  18  19
BRANCH  18  21
HETATM   21  C12 UNL     1     -51.516  46.175   4.825  1.00  0.00     0.198 C 
BRANCH  21  22
HETATM   22  O6  UNL     1     -50.931  45.950   3.541  1.00  0.00    -0.398 OA
HETATM   23  H   UNL     1     -51.619  46.002   2.858  1.00  0.00     0.209 HD
ENDBRANCH  21  22
ENDBRANCH  18  21
ENDBRANCH  15  18
ENDBRANCH   1  15
TORSDOF 11
ENDMDL
MODEL 3
REMARK VINA RESULT:      -6.8      1.467      1.942
REMARK  11 active torsions:
REMARK  status: ('A' for Active; 'I' for Inactive)
REMARK    1  A    between atoms: C1_1  and  C2_2 
REMARK    2  A    between atoms: C1_1  and  C10_13 
REMARK    3  A    between atoms: C2_2  and  C3_3 
REMARK    4  A    between atoms: C3_3  and  C4_4 
REMARK    5  A    between atoms: C6_6  and  O1_7 
REMARK    6  A    between atoms: C7_8  and  O2_9 
REMARK    7  A    between atoms: C10_13  and  O4_14 
REMARK    8  A    between atoms: C10_13  and  C11_15 
REMARK    9  A    between atoms: C11_15  and  O5_16 
REMARK   10  A    between atoms: C11_15  and  C12_17 
REMARK   11  A    between atoms: C12_17  and  O6_18 
ROOT
HETATM    1  C1  UNL     1     -53.318  46.027   7.058  1.00  0.00     0.158 C 
HETATM    2  O3  UNL     1     -54.065  45.297   7.717  1.00  0.00    -0.295 OA
ENDROOT
BRANCH   1   3
HETATM    3  C2  UNL     1     -52.700  47.265   7.683  1.00  0.00     0.086 C 
BRANCH   3   4
HETATM    4  C3  UNL     1     -53.728  48.263   8.210  1.00  0.00     0.046 C 
BRANCH   4   5
HETATM    5  C4  UNL     1     -53.509  48.657   9.652  1.00  0.00    -0.055 A 
HETATM    6  C5  UNL     1     -53.626  49.997  10.056  1.00  0.00     0.046 A 
HETATM    7  C6  UNL     1     -53.409  50.336  11.387  1.00  0.00     0.099 A 
HETATM    8  C7  UNL     1     -53.084  49.357  12.320  1.00  0.00     0.098 A 
HETATM    9  C8  UNL     1     -52.969  48.029  11.942  1.00  0.00     0.040 A 
HETATM   10  C9  UNL     1     -53.183  47.678  10.609  1.00  0.00     0.010 A 
BRANCH   7  11
HETATM   11  O1  UNL     1     -53.504  51.627  11.829  1.00  0.00    -0.358 OA
HETATM   12  H   UNL     1     -53.144  52.325  11.317  1.00  0.00     0.217 HD
ENDBRANCH   7  11
BRANCH   8  13
HETATM   13  O2  UNL     1     -52.872  49.700  13.625  1.00  0.00    -0.358 OA
HETATM   14  H   UNL     1     -52.008  49.912  13.920  1.00  0.00     0.217 HD
ENDBRANCH   8  13
ENDBRANCH   4   5
ENDBRANCH   3   4
ENDBRANCH   1   3
BRANCH   1  15
HETATM   15  C10 UNL     1     -52.941  45.693   5.613  1.00  0.00     0.218 C 
BRANCH  15  16
HETATM   16  O4  UNL     1     -52.556  46.904   4.963  1.00  0.00    -0.385 OA
HETATM   17  H   UNL     1     -51.682  47.178   5.282  1.00  0.00     0.210 HD
ENDBRANCH  15  16
BRANCH  15  18
HETATM   18  C11 UNL     1     -51.812  44.643   5.558  1.00  0.00     0.177 C 
BRANCH  18  19
HETATM   19  O5  UNL     1     -52.042  43.578   6.495  1.00  0.00    -0.390 OA
HETATM   20  H   UNL     1     -51.844  42.727   6.072  1.00  0.00     0.210 HD
ENDBRANCH  18  19
BRANCH  18  21
HETATM   21  C12 UNL     1     -51.719  43.994   4.171  1.00  0.00     0.198 C 
BRANCH  21  22
HETATM   22  O6  UNL     1     -52.980  44.093   3.505  1.00  0.00    -0.398 OA
HETATM   23  H   UNL     1     -53.270  45.019   3.498  1.00  0.00     0.209 HD
ENDBRANCH  21  22
ENDBRANCH  18  21
ENDBRANCH  15  18
ENDBRANCH   1  15
TORSDOF 11
ENDMDL
MODEL 4
REMARK VINA RESULT:      -6.6      0.777      1.642
REMARK  11 active torsions:
REMARK  status: ('A' for Active; 'I' for Inactive)
REMARK    1  A    between atoms: C1_1  and  C2_2 
REMARK    2  A    between atoms: C1_1  and  C10_13 
REMARK    3  A    between atoms: C2_2  and  C3_3 
REMARK    4  A    between atoms: C3_3  and  C4_4 
REMARK    5  A    between atoms: C6_6  and  O1_7 
REMARK    6  A    between atoms: C7_8  and  O2_9 
REMARK    7  A    between atoms: C10_13  and  O4_14 
REMARK    8  A    between atoms: C10_13  and  C11_15 
REMARK    9  A    between atoms: C11_15  and  O5_16 
REMARK   10  A    between atoms: C11_15  and  C12_17 
REMARK   11  A    between atoms: C12_17  and  O6_18 
ROOT
HETATM    1  C1  UNL     1     -51.530  47.363   6.816  1.00  0.00     0.158 C 
HETATM    2  O3  UNL     1     -50.769  48.325   6.676  1.00  0.00    -0.295 OA
ENDROOT
BRANCH   1   3
HETATM    3  C2  UNL     1     -51.829  46.809   8.198  1.00  0.00     0.086 C 
BRANCH   3   4
HETATM    4  C3  UNL     1     -53.232  47.140   8.700  1.00  0.00     0.046 C 
BRANCH   4   5
HETATM    5  C4  UNL     1     -53.300  48.399   9.531  1.00  0.00    -0.055 A 
HETATM    6  C5  UNL     1     -53.119  48.350  10.924  1.00  0.00     0.046 A 
HETATM    7  C6  UNL     1     -53.197  49.522  11.669  1.00  0.00     0.099 A 
HETATM    8  C7  UNL     1     -53.445  50.740  11.044  1.00  0.00     0.098 A 
HETATM    9  C8  UNL     1     -53.621  50.809   9.672  1.00  0.00     0.040 A 
HETATM   10  C9  UNL     1     -53.546  49.639   8.915  1.00  0.00     0.010 A 
BRANCH   7  11
HETATM   11  O1  UNL     1     -53.035  49.526  13.027  1.00  0.00    -0.358 OA
HETATM   12  H   UNL     1     -53.740  49.796  13.582  1.00  0.00     0.217 HD
ENDBRANCH   7  11
BRANCH   8  13
HETATM   13  O2  UNL     1     -53.519  51.884  11.786  1.00  0.00    -0.358 OA
HETATM   14  H   UNL     1     -53.536  52.718  11.359  1.00  0.00     0.217 HD
ENDBRANCH   8  13
ENDBRANCH   4   5
ENDBRANCH   3   4
ENDBRANCH   1   3
BRANCH   1  15
HETATM   15  C10 UNL     1     -52.243  46.725   5.622  1.00  0.00     0.218 C 
BRANCH  15  16
HETATM   16  O4  UNL     1     -51.508  47.050   4.441  1.00  0.00    -0.385 OA
HETATM   17  H   UNL     1     -51.666  46.372   3.766  1.00  0.00     0.210 HD
ENDBRANCH  15  16
BRANCH  15  18
HETATM   18  C11 UNL     1     -52.375  45.198   5.799  1.00  0.00     0.177 C 
BRANCH  18  19
HETATM   19  O5  UNL     1     -53.752  44.800   5.896  1.00  0.00    -0.390 OA
HETATM   20  H   UNL     1     -53.910  44.393   6.763  1.00  0.00     0.210 HD
ENDBRANCH  18  19
BRANCH  18  21
HETATM   21  C12 UNL     1     -51.784  44.444   4.601  1.00  0.00     0.198 C 
BRANCH  21  22
HETATM   22  O6  UNL     1     -52.803  44.210   3.626  1.00  0.00    -0.398 OA
HETATM   23  H   UNL     1     -53.674  44.355   4.028  1.00  0.00     0.209 HD
ENDBRANCH  21  22
ENDBRANCH  18  21
ENDBRANCH  15  18
ENDBRANCH   1  15
TORSDOF 11
ENDMDL
MODEL 5
REMARK VINA RESULT:      -6.6      1.394      2.639
REMARK  11 active torsions:
REMARK  status: ('A' for Active; 'I' for Inactive)
REMARK    1  A    between atoms: C1_1  and  C2_2 
REMARK    2  A    between atoms: C1_1  and  C10_13 
REMARK    3  A    between atoms: C2_2  and  C3_3 
REMARK    4  A    between atoms: C3_3  and  C4_4 
REMARK    5  A    between atoms: C6_6  and  O1_7 
REMARK    6  A    between atoms: C7_8  and  O2_9 
REMARK    7  A    between atoms: C10_13  and  O4_14 
REMARK    8  A    between atoms: C10_13  and  C11_15 
REMARK    9  A    between atoms: C11_15  and  O5_16 
REMARK   10  A    between atoms: C11_15  and  C12_17 
REMARK   11  A    between atoms: C12_17  and  O6_18 
ROOT
HETATM    1  C1  UNL     1     -53.003  45.256   7.583  1.00  0.00     0.158 C 
HETATM    2  O3  UNL     1     -54.159  44.837   7.472  1.00  0.00    -0.295 OA
ENDROOT
BRANCH   1   3
HETATM    3  C2  UNL     1     -52.610  46.136   8.757  1.00  0.00     0.086 C 
BRANCH   3   4
HETATM    4  C3  UNL     1     -53.787  46.538   9.642  1.00  0.00     0.046 C 
BRANCH   4   5
HETATM    5  C4  UNL     1     -53.674  47.934  10.207  1.00  0.00    -0.055 A 
HETATM    6  C5  UNL     1     -53.299  48.138  11.546  1.00  0.00     0.046 A 
HETATM    7  C6  UNL     1     -53.211  49.433  12.047  1.00  0.00     0.099 A 
HETATM    8  C7  UNL     1     -53.486  50.525  11.229  1.00  0.00     0.098 A 
HETATM    9  C8  UNL     1     -53.853  50.344   9.906  1.00  0.00     0.040 A 
HETATM   10  C9  UNL     1     -53.945  49.049   9.394  1.00  0.00     0.010 A 
BRANCH   7  11
HETATM   11  O1  UNL     1     -52.857  49.683  13.344  1.00  0.00    -0.358 OA
HETATM   12  H   UNL     1     -53.518  49.765  14.003  1.00  0.00     0.217 HD
ENDBRANCH   7  11
BRANCH   8  13
HETATM   13  O2  UNL     1     -53.398  51.792  11.731  1.00  0.00    -0.358 OA
HETATM   14  H   UNL     1     -52.840  52.421  11.319  1.00  0.00     0.217 HD
ENDBRANCH   8  13
ENDBRANCH   4   5
ENDBRANCH   3   4
ENDBRANCH   1   3
BRANCH   1  15
HETATM   15  C10 UNL     1     -51.911  44.869   6.584  1.00  0.00     0.218 C 
BRANCH  15  16
HETATM   16  O4  UNL     1     -51.973  43.457   6.385  1.00  0.00    -0.385 OA
HETATM   17  H   UNL     1     -52.211  43.023   7.219  1.00  0.00     0.210 HD
ENDBRANCH  15  16
BRANCH  15  18
HETATM   18  C11 UNL     1     -52.075  45.632   5.253  1.00  0.00     0.177 C 
BRANCH  18  19
HETATM   19  O5  UNL     1     -53.456  45.721   4.868  1.00  0.00    -0.390 OA
HETATM   20  H   UNL     1     -53.702  44.931   4.362  1.00  0.00     0.210 HD
ENDBRANCH  18  19
BRANCH  18  21
HETATM   21  C12 UNL     1     -51.558  47.072   5.367  1.00  0.00     0.198 C 
BRANCH  21  22
HETATM   22  O6  UNL     1     -51.650  47.722   4.097  1.00  0.00    -0.398 OA
HETATM   23  H   UNL     1     -52.583  47.806   3.844  1.00  0.00     0.209 HD
ENDBRANCH  21  22
ENDBRANCH  18  21
ENDBRANCH  15  18
ENDBRANCH   1  15
TORSDOF 11
ENDMDL
MODEL 6
REMARK VINA RESULT:      -6.5      4.489      7.686
REMARK  11 active torsions:
REMARK  status: ('A' for Active; 'I' for Inactive)
REMARK    1  A    between atoms: C1_1  and  C2_2 
REMARK    2  A    between atoms: C1_1  and  C10_13 
REMARK    3  A    between atoms: C2_2  and  C3_3 
REMARK    4  A    between atoms: C3_3  and  C4_4 
REMARK    5  A    between atoms: C6_6  and  O1_7 
REMARK    6  A    between atoms: C7_8  and  O2_9 
REMARK    7  A    between atoms: C10_13  and  O4_14 
REMARK    8  A    between atoms: C10_13  and  C11_15 
REMARK    9  A    between atoms: C11_15  and  O5_16 
REMARK   10  A    between atoms: C11_15  and  C12_17 
REMARK   11  A    between atoms: C12_17  and  O6_18 
ROOT
HETATM    1  C1  UNL     1     -51.352  47.946  14.908  1.00  0.00     0.158 C 
HETATM    2  O3  UNL     1     -51.549  48.955  15.592  1.00  0.00    -0.295 OA
ENDROOT
BRANCH   1   3
HETATM    3  C2  UNL     1     -52.261  47.619  13.736  1.00  0.00     0.086 C 
BRANCH   3   4
HETATM    4  C3  UNL     1     -53.250  48.731  13.398  1.00  0.00     0.046 C 
BRANCH   4   5
HETATM    5  C4  UNL     1     -53.317  49.060  11.925  1.00  0.00    -0.055 A 
HETATM    6  C5  UNL     1     -53.545  50.377  11.494  1.00  0.00     0.046 A 
HETATM    7  C6  UNL     1     -53.614  50.652  10.132  1.00  0.00     0.099 A 
HETATM    8  C7  UNL     1     -53.450  49.634   9.197  1.00  0.00     0.098 A 
HETATM    9  C8  UNL     1     -53.219  48.330   9.604  1.00  0.00     0.040 A 
HETATM   10  C9  UNL     1     -53.150  48.043  10.968  1.00  0.00     0.010 A 
BRANCH   7  11
HETATM   11  O1  UNL     1     -53.840  51.916   9.661  1.00  0.00    -0.358 OA
HETATM   12  H   UNL     1     -53.118  52.482   9.470  1.00  0.00     0.217 HD
ENDBRANCH   7  11
BRANCH   8  13
HETATM   13  O2  UNL     1     -53.519  49.915   7.863  1.00  0.00    -0.358 OA
HETATM   14  H   UNL     1     -52.744  50.150   7.393  1.00  0.00     0.217 HD
ENDBRANCH   8  13
ENDBRANCH   4   5
ENDBRANCH   3   4
ENDBRANCH   1   3
BRANCH   1  15
HETATM   15  C10 UNL     1     -50.164  47.018  15.171  1.00  0.00     0.218 C 
BRANCH  15  16
HETATM   16  O4  UNL     1     -50.062  46.107  14.077  1.00  0.00    -0.385 OA
HETATM   17  H   UNL     1     -50.851  46.185  13.517  1.00  0.00     0.210 HD
ENDBRANCH  15  16
BRANCH  15  18
HETATM   18  C11 UNL     1     -48.859  47.820  15.358  1.00  0.00     0.177 C 
BRANCH  18  19
HETATM   19  O5  UNL     1     -48.944  48.700  16.490  1.00  0.00    -0.390 OA
HETATM   20  H   UNL     1     -49.137  49.600  16.186  1.00  0.00     0.210 HD
ENDBRANCH  18  19
BRANCH  18  21
HETATM   21  C12 UNL     1     -47.665  46.891  15.613  1.00  0.00     0.198 C 
BRANCH  21  22
HETATM   22  O6  UNL     1     -48.131  45.612  16.050  1.00  0.00    -0.398 OA
HETATM   23  H   UNL     1     -47.544  45.274  16.745  1.00  0.00     0.209 HD
ENDBRANCH  21  22
ENDBRANCH  18  21
ENDBRANCH  15  18
ENDBRANCH   1  15
TORSDOF 11
ENDMDL
MODEL 7
REMARK VINA RESULT:      -6.5      2.813      3.506
REMARK  11 active torsions:
REMARK  status: ('A' for Active; 'I' for Inactive)
REMARK    1  A    between atoms: C1_1  and  C2_2 
REMARK    2  A    between atoms: C1_1  and  C10_13 
REMARK    3  A    between atoms: C2_2  and  C3_3 
REMARK    4  A    between atoms: C3_3  and  C4_4 
REMARK    5  A    between atoms: C6_6  and  O1_7 
REMARK    6  A    between atoms: C7_8  and  O2_9 
REMARK    7  A    between atoms: C10_13  and  O4_14 
REMARK    8  A    between atoms: C10_13  and  C11_15 
REMARK    9  A    between atoms: C11_15  and  O5_16 
REMARK   10  A    between atoms: C11_15  and  C12_17 
REMARK   11  A    between atoms: C12_17  and  O6_18 
ROOT
HETATM    1  C1  UNL     1     -52.877  44.822   8.734  1.00  0.00     0.158 C 
HETATM    2  O3  UNL     1     -51.908  44.065   8.628  1.00  0.00    -0.295 OA
ENDROOT
BRANCH   1   3
HETATM    3  C2  UNL     1     -52.704  46.225   9.289  1.00  0.00     0.086 C 
BRANCH   3   4
HETATM    4  C3  UNL     1     -54.024  46.930   9.593  1.00  0.00     0.046 C 
BRANCH   4   5
HETATM    5  C4  UNL     1     -53.854  48.323  10.154  1.00  0.00    -0.055 A 
HETATM    6  C5  UNL     1     -53.820  49.440   9.302  1.00  0.00     0.046 A 
HETATM    7  C6  UNL     1     -53.652  50.711   9.842  1.00  0.00     0.099 A 
HETATM    8  C7  UNL     1     -53.524  50.882  11.216  1.00  0.00     0.098 A 
HETATM    9  C8  UNL     1     -53.560  49.794  12.072  1.00  0.00     0.040 A 
HETATM   10  C9  UNL     1     -53.727  48.514  11.541  1.00  0.00     0.010 A 
BRANCH   7  11
HETATM   11  O1  UNL     1     -53.606  51.829   9.055  1.00  0.00    -0.358 OA
HETATM   12  H   UNL     1     -54.402  52.244   8.784  1.00  0.00     0.217 HD
ENDBRANCH   7  11
BRANCH   8  13
HETATM   13  O2  UNL     1     -53.359  52.135  11.735  1.00  0.00    -0.358 OA
HETATM   14  H   UNL     1     -53.597  52.887  11.229  1.00  0.00     0.217 HD
ENDBRANCH   8  13
ENDBRANCH   4   5
ENDBRANCH   3   4
ENDBRANCH   1   3
BRANCH   1  15
HETATM   15  C10 UNL     1     -54.274  44.407   8.266  1.00  0.00     0.218 C 
BRANCH  15  16
HETATM   16  O4  UNL     1     -54.313  44.512   6.842  1.00  0.00    -0.385 OA
HETATM   17  H   UNL     1     -55.148  44.143   6.514  1.00  0.00     0.210 HD
ENDBRANCH  15  16
BRANCH  15  18
HETATM   18  C11 UNL     1     -54.619  42.978   8.734  1.00  0.00     0.177 C 
BRANCH  18  19
HETATM   19  O5  UNL     1     -54.169  42.745  10.078  1.00  0.00    -0.390 OA
HETATM   20  H   UNL     1     -54.302  41.811  10.306  1.00  0.00     0.210 HD
ENDBRANCH  18  19
BRANCH  18  21
HETATM   21  C12 UNL     1     -56.135  42.740   8.731  1.00  0.00     0.198 C 
BRANCH  21  22
HETATM   22  O6  UNL     1     -56.561  42.348   7.425  1.00  0.00    -0.398 OA
HETATM   23  H   UNL     1     -57.523  42.227   7.421  1.00  0.00     0.209 HD
ENDBRANCH  21  22
ENDBRANCH  18  21
ENDBRANCH  15  18
ENDBRANCH   1  15
TORSDOF 11
ENDMDL
MODEL 8
REMARK VINA RESULT:      -6.5      2.031      2.769
REMARK  11 active torsions:
REMARK  status: ('A' for Active; 'I' for Inactive)
REMARK    1  A    between atoms: C1_1  and  C2_2 
REMARK    2  A    between atoms: C1_1  and  C10_13 
REMARK    3  A    between atoms: C2_2  and  C3_3 
REMARK    4  A    between atoms: C3_3  and  C4_4 
REMARK    5  A    between atoms: C6_6  and  O1_7 
REMARK    6  A    between atoms: C7_8  and  O2_9 
REMARK    7  A    between atoms: C10_13  and  O4_14 
REMARK    8  A    between atoms: C10_13  and  C11_15 
REMARK    9  A    between atoms: C11_15  and  O5_16 
REMARK   10  A    between atoms: C11_15  and  C12_17 
REMARK   11  A    between atoms: C12_17  and  O6_18 
ROOT
HETATM    1  C1  UNL     1     -53.039  45.008   9.466  1.00  0.00     0.158 C 
HETATM    2  O3  UNL     1     -53.313  44.062  10.211  1.00  0.00    -0.295 OA
ENDROOT
BRANCH   1   3
HETATM    3  C2  UNL     1     -52.147  46.138   9.948  1.00  0.00     0.086 C 
BRANCH   3   4
HETATM    4  C3  UNL     1     -52.759  46.961  11.079  1.00  0.00     0.046 C 
BRANCH   4   5
HETATM    5  C4  UNL     1     -53.066  48.389  10.696  1.00  0.00    -0.055 A 
HETATM    6  C5  UNL     1     -53.086  48.781   9.347  1.00  0.00     0.046 A 
HETATM    7  C6  UNL     1     -53.361  50.105   9.020  1.00  0.00     0.099 A 
HETATM    8  C7  UNL     1     -53.622  51.039  10.018  1.00  0.00     0.098 A 
HETATM    9  C8  UNL     1     -53.611  50.670  11.353  1.00  0.00     0.040 A 
HETATM   10  C9  UNL     1     -53.335  49.344  11.692  1.00  0.00     0.010 A 
BRANCH   7  11
HETATM   11  O1  UNL     1     -53.386  50.538   7.723  1.00  0.00    -0.358 OA
HETATM   12  H   UNL     1     -52.677  50.333   7.146  1.00  0.00     0.217 HD
ENDBRANCH   7  11
BRANCH   8  13
HETATM   13  O2  UNL     1     -53.890  52.336   9.686  1.00  0.00    -0.358 OA
HETATM   14  H   UNL     1     -53.852  53.005  10.341  1.00  0.00     0.217 HD
ENDBRANCH   8  13
ENDBRANCH   4   5
ENDBRANCH   3   4
ENDBRANCH   1   3
BRANCH   1  15
HETATM   15  C10 UNL     1     -53.535  45.057   8.019  1.00  0.00     0.218 C 
BRANCH  15  16
HETATM   16  O4  UNL     1     -54.525  46.082   7.924  1.00  0.00    -0.385 OA
HETATM   17  H   UNL     1     -54.400  46.577   7.100  1.00  0.00     0.210 HD
ENDBRANCH  15  16
BRANCH  15  18
HETATM   18  C11 UNL     1     -52.372  45.307   7.037  1.00  0.00     0.177 C 
BRANCH  18  19
HETATM   19  O5  UNL     1     -52.376  44.349   5.966  1.00  0.00    -0.390 OA
HETATM   20  H   UNL     1     -51.771  44.642   5.268  1.00  0.00     0.210 HD
ENDBRANCH  18  19
BRANCH  18  21
HETATM   21  C12 UNL     1     -52.479  46.692   6.385  1.00  0.00     0.198 C 
BRANCH  21  22
HETATM   22  O6  UNL     1     -53.304  46.617   5.221  1.00  0.00    -0.398 OA
HETATM   23  H   UNL     1     -52.995  45.894   4.651  1.00  0.00     0.209 HD
ENDBRANCH  21  22
ENDBRANCH  18  21
ENDBRANCH  15  18
ENDBRANCH   1  15
TORSDOF 11
ENDMDL
MODEL 9
REMARK VINA RESULT:      -6.5      1.339      2.140
REMARK  11 active torsions:
REMARK  status: ('A' for Active; 'I' for Inactive)
REMARK    1  A    between atoms: C1_1  and  C2_2 
REMARK    2  A    between atoms: C1_1  and  C10_13 
REMARK    3  A    between atoms: C2_2  and  C3_3 
REMARK    4  A    between atoms: C3_3  and  C4_4 
REMARK    5  A    between atoms: C6_6  and  O1_7 
REMARK    6  A    between atoms: C7_8  and  O2_9 
REMARK    7  A    between atoms: C10_13  and  O4_14 
REMARK    8  A    between atoms: C10_13  and  C11_15 
REMARK    9  A    between atoms: C11_15  and  O5_16 
REMARK   10  A    between atoms: C11_15  and  C12_17 
REMARK   11  A    between atoms: C12_17  and  O6_18 
ROOT
HETATM    1  C1  UNL     1     -52.256  45.822   7.300  1.00  0.00     0.158 C 
HETATM    2  O3  UNL     1     -51.246  45.651   7.990  1.00  0.00    -0.295 OA
ENDROOT
BRANCH   1   3
HETATM    3  C2  UNL     1     -53.492  46.479   7.889  1.00  0.00     0.086 C 
BRANCH   3   4
HETATM    4  C3  UNL     1     -53.347  47.984   8.094  1.00  0.00     0.046 C 
BRANCH   4   5
HETATM    5  C4  UNL     1     -53.271  48.396   9.545  1.00  0.00    -0.055 A 
HETATM    6  C5  UNL     1     -53.469  49.735   9.923  1.00  0.00     0.046 A 
HETATM    7  C6  UNL     1     -53.383  50.091  11.265  1.00  0.00     0.099 A 
HETATM    8  C7  UNL     1     -53.109  49.130  12.233  1.00  0.00     0.098 A 
HETATM    9  C8  UNL     1     -52.916  47.805  11.881  1.00  0.00     0.040 A 
HETATM   10  C9  UNL     1     -52.999  47.437  10.537  1.00  0.00     0.010 A 
BRANCH   7  11
HETATM   11  O1  UNL     1     -53.561  51.381  11.683  1.00  0.00    -0.358 OA
HETATM   12  H   UNL     1     -53.150  51.679  12.471  1.00  0.00     0.217 HD
ENDBRANCH   7  11
BRANCH   8  13
HETATM   13  O2  UNL     1     -53.027  49.491  13.548  1.00  0.00    -0.358 OA
HETATM   14  H   UNL     1     -53.805  49.550  14.067  1.00  0.00     0.217 HD
ENDBRANCH   8  13
ENDBRANCH   4   5
ENDBRANCH   3   4
ENDBRANCH   1   3
BRANCH   1  15
HETATM   15  C10 UNL     1     -52.290  45.436   5.819  1.00  0.00     0.218 C 
BRANCH  15  16
HETATM   16  O4  UNL     1     -53.539  45.865   5.278  1.00  0.00    -0.385 OA
HETATM   17  H   UNL     1     -54.257  45.336   5.661  1.00  0.00     0.210 HD
ENDBRANCH  15  16
BRANCH  15  18
HETATM   18  C11 UNL     1     -51.103  46.055   5.052  1.00  0.00     0.177 C 
BRANCH  18  19
HETATM   19  O5  UNL     1     -51.131  45.691   3.663  1.00  0.00    -0.390 OA
HETATM   20  H   UNL     1     -51.843  45.050   3.511  1.00  0.00     0.210 HD
ENDBRANCH  18  19
BRANCH  18  21
HETATM   21  C12 UNL     1     -51.143  47.588   5.104  1.00  0.00     0.198 C 
BRANCH  21  22
HETATM   22  O6  UNL     1     -51.858  48.092   3.975  1.00  0.00    -0.398 OA
HETATM   23  H   UNL     1     -51.269  48.650   3.442  1.00  0.00     0.209 HD
ENDBRANCH  21  22
ENDBRANCH  18  21
ENDBRANCH  15  18
ENDBRANCH   1  15
TORSDOF 11
ENDMDL
