REMARK  7 active torsions:
REMARK  status: ('A' for Active; 'I' for Inactive)
REMARK    1  A    between atoms: O_1  and  C_12 
REMARK    2  A    between atoms: O_3  and  C_15 
REMARK    3  A    between atoms: C_5  and  C_6 
REMARK    4  A    between atoms: C_5  and  C_7 
REMARK    5  A    between atoms: C_6  and  C_8 
REMARK    6  A    between atoms: C_7  and  C_9 
REMARK    7  A    between atoms: C_9  and  C_14 
ROOT
HETATM    1  O   UNL     1      -3.956  -2.073  -0.092  1.00  0.00    -0.358 OA
HETATM    2  H   UNL     1      -3.542  -2.857  -0.396  1.00  0.00     0.217 HD
ENDROOT
BRANCH   1   3
HETATM    3  C   UNL     1      -3.267  -0.897  -0.086  1.00  0.00     0.099 A 
HETATM    4  C   UNL     1      -1.946  -0.875  -0.533  1.00  0.00     0.046 A 
HETATM    5  C   UNL     1      -1.229   0.322  -0.530  1.00  0.00    -0.055 A 
HETATM    6  C   UNL     1      -1.833   1.496  -0.079  1.00  0.00     0.010 A 
HETATM    7  C   UNL     1      -3.155   1.473   0.367  1.00  0.00     0.040 A 
HETATM    8  C   UNL     1      -3.871   0.276   0.364  1.00  0.00     0.098 A 
BRANCH   5   9
HETATM    9  C   UNL     1       0.200   0.346  -1.012  1.00  0.00     0.038 C 
BRANCH   9  10
HETATM   10  C   UNL     1       1.232   0.087   0.091  1.00  0.00     0.005 C 
BRANCH  10  11
HETATM   11  C   UNL     1       2.680   0.187  -0.408  1.00  0.00     0.011 C 
BRANCH  11  12
HETATM   12  C   UNL     1       3.697  -0.149   0.683  1.00  0.00     0.113 C 
BRANCH  12  13
HETATM   13  C   UNL     1       5.128  -0.126   0.195  1.00  0.00     0.172 C 
HETATM   14  O   UNL     1       5.992  -0.507   1.172  1.00  0.00    -0.648 OA
HETATM   15  O   UNL     1       5.489   0.173  -0.935  1.00  0.00    -0.648 OA
ENDBRANCH  12  13
ENDBRANCH  11  12
ENDBRANCH  10  11
ENDBRANCH   9  10
ENDBRANCH   5   9
BRANCH   8  16
HETATM   16  O   UNL     1      -5.161   0.266   0.803  1.00  0.00    -0.358 OA
HETATM   17  H   UNL     1      -5.649  -0.534   0.804  1.00  0.00     0.217 HD
ENDBRANCH   8  16
ENDBRANCH   1   3
TORSDOF 7
