REMARK  4 active torsions:
REMARK  status: ('A' for Active; 'I' for Inactive)
REMARK    1  A    between atoms: O_1  and  C_8 
REMARK    2  A    between atoms: O_2  and  C_9 
REMARK    3  A    between atoms: C_5  and  C_11 
REMARK    4  A    between atoms: C_12  and  C_13 
ROOT
ATOM      1  O   UNL A   1       3.319  -1.778   0.194  1.00  0.00    -0.358 OA
ATOM      2  H   UNL A   1       3.049  -2.674   0.241  1.00  0.00     0.217 HD
ENDROOT
BRANCH   1   3
ATOM      3  C   UNL A   1       2.388  -0.792   0.070  1.00  0.00     0.099 A 
ATOM      4  C   UNL A   1       1.035  -1.127   0.018  1.00  0.00     0.050 A 
ATOM      5  C   UNL A   1       0.072  -0.125  -0.107  1.00  0.00    -0.033 A 
ATOM      6  C   UNL A   1       0.463   1.212  -0.178  1.00  0.00     0.014 A 
ATOM      7  C   UNL A   1       1.816   1.547  -0.125  1.00  0.00     0.040 A 
ATOM      8  C   UNL A   1       2.778   0.545  -0.001  1.00  0.00     0.098 A 
BRANCH   5   9
ATOM      9  C   UNL A   1      -1.338  -0.475  -0.163  1.00  0.00     0.018 C 
ATOM     10  C   UNL A   1      -2.308   0.395   0.105  1.00  0.00     0.085 C 
BRANCH  10  11
ATOM     11  C   UNL A   1      -3.709  -0.067   0.036  1.00  0.00     0.198 C 
ATOM     12  O   UNL A   1      -4.523   0.966   0.359  1.00  0.00    -0.645 OA
ATOM     13  O   UNL A   1      -4.090  -1.187  -0.260  1.00  0.00    -0.645 OA
ENDBRANCH  10  11
ENDBRANCH   5   9
BRANCH   8  14
ATOM     14  O   UNL A   1       4.096   0.885   0.051  1.00  0.00    -0.358 OA
ATOM     15  H   UNL A   1       4.749   0.218   0.134  1.00  0.00     0.217 HD
ENDBRANCH   8  14
ENDBRANCH   1   3
TORSDOF 4
