REMARK  6 active torsions:
REMARK  status: ('A' for Active; 'I' for Inactive)
REMARK    1  A    between atoms: O_1  and  C_5 
REMARK    2  A    between atoms: O_2  and  C_7 
REMARK    3  A    between atoms: O_2  and  C_13 
REMARK    4  A    between atoms: C_4  and  C_5 
REMARK    5  A    between atoms: C_4  and  C_6 
REMARK    6  A    between atoms: C_5  and  C_7 
ROOT
HETATM    1  O   UNL     1       0.361  -2.225  -0.526  1.00  0.00    -0.385 OA
HETATM    2  H   UNL     1      -0.591  -2.310  -0.691  1.00  0.00     0.210 HD
ENDROOT
BRANCH   1   3
HETATM    3  C   UNL     1       0.699  -0.850  -0.400  1.00  0.00     0.221 C 
BRANCH   3   4
HETATM    4  C   UNL     1      -0.089  -0.254   0.769  1.00  0.00     0.080 C 
BRANCH   4   5
HETATM    5  C   UNL     1      -1.512   0.073   0.386  1.00  0.00    -0.055 A 
HETATM    6  C   UNL     1      -1.807   1.330  -0.119  1.00  0.00     0.007 A 
HETATM    7  C   UNL     1      -3.122   1.633  -0.473  1.00  0.00     0.001 A 
HETATM    8  C   UNL     1      -4.124   0.675  -0.317  1.00  0.00     0.000 A 
HETATM    9  C   UNL     1      -3.812  -0.585   0.192  1.00  0.00     0.001 A 
HETATM   10  C   UNL     1      -2.497  -0.888   0.546  1.00  0.00     0.007 A 
ENDBRANCH   4   5
ENDBRANCH   3   4
BRANCH   3  11
HETATM   11  C   UNL     1       2.191  -0.764  -0.144  1.00  0.00     0.288 C 
HETATM   12  O   UNL     1       2.931  -1.730  -0.013  1.00  0.00    -0.262 OA
BRANCH  11  13
HETATM   13  O   UNL     1       2.575   0.546  -0.110  1.00  0.00    -0.320 OA
BRANCH  13  14
HETATM   14  C   UNL     1       3.973   0.774   0.099  1.00  0.00     0.174 C 
HETATM   15  C   UNL     1       4.232   2.266   0.110  1.00  0.00     0.034 C 
ENDBRANCH  13  14
ENDBRANCH  11  13
ENDBRANCH   3  11
ENDBRANCH   1   3
TORSDOF 6
