REMARK  3 active torsions:
REMARK  status: ('A' for Active; 'I' for Inactive)
REMARK    1  A    between atoms: O_5  and  C_15 
REMARK    2  A    between atoms: N_8  and  C_16 
REMARK    3  A    between atoms: N_12  and  C_21 
ROOT
HETATM    1  P   UNL     1       4.516   0.279  -0.642  1.00  0.00     0.408 P 
HETATM    2  O   UNL     1       0.854  -0.015   1.639  1.00  0.00    -0.353 OA
HETATM    3  O   UNL     1       3.211  -0.636  -0.974  1.00  0.00    -0.279 OA
HETATM    4  O   UNL     1       4.420   0.626   0.943  1.00  0.00    -0.287 OA
HETATM    5  O   UNL     1       4.210   1.693  -1.370  1.00  0.00    -0.624 OA
HETATM    6  O   UNL     1       5.821  -0.338  -1.056  1.00  0.00    -0.624 OA
HETATM    7  C   UNL     1       2.007  -0.229  -0.365  1.00  0.00     0.198 C 
HETATM    8  C   UNL     1       2.180  -0.175   1.138  1.00  0.00     0.180 C 
HETATM    9  C   UNL     1       0.824  -1.162  -0.487  1.00  0.00     0.199 C 
HETATM   10  C   UNL     1      -0.017  -0.750   0.736  1.00  0.00     0.262 C 
HETATM   11  C   UNL     1       3.148   0.927   1.519  1.00  0.00     0.216 C 
ENDROOT
BRANCH   9  12
HETATM   12  O   UNL     1       1.248  -2.513  -0.336  1.00  0.00    -0.388 OA
HETATM   13  H   UNL     1       1.778  -2.774  -1.106  1.00  0.00     0.210 HD
ENDBRANCH   9  12
BRANCH  10  14
HETATM   14  N   UNL     1      -1.177   0.076   0.397  1.00  0.00    -0.294 N 
HETATM   15  C   UNL     1      -2.450  -0.358   0.160  1.00  0.00     0.167 A 
HETATM   16  N   UNL     1      -2.903  -1.620   0.189  1.00  0.00    -0.222 NA
HETATM   17  C   UNL     1      -3.178   0.788  -0.117  1.00  0.00     0.149 A 
HETATM   18  C   UNL     1      -4.223  -1.655  -0.099  1.00  0.00     0.237 A 
HETATM   19  N   UNL     1      -5.057  -0.627  -0.388  1.00  0.00    -0.222 NA
HETATM   20  C   UNL     1      -4.531   0.621  -0.399  1.00  0.00     0.155 A 
HETATM   21  N   UNL     1      -2.377   1.900  -0.053  1.00  0.00    -0.236 NA
HETATM   22  C   UNL     1      -1.183   1.439   0.258  1.00  0.00     0.214 A 
BRANCH  20  23
HETATM   23  N   UNL     1      -5.344   1.729  -0.693  1.00  0.00    -0.382 N 
HETATM   24  H   UNL     1      -6.300   1.600  -0.891  1.00  0.00     0.157 HD
HETATM   25  H   UNL     1      -4.958   2.635  -0.701  1.00  0.00     0.157 HD
ENDBRANCH  20  23
ENDBRANCH  10  14
TORSDOF 3
