MODEL 1
REMARK VINA RESULT:      -6.3      0.000      0.000
REMARK  7 active torsions:
REMARK  status: ('A' for Active; 'I' for Inactive)
REMARK    1  A    between atoms: O_1  and  C_2 
REMARK    2  A    between atoms: C_2  and  C_3 
REMARK    3  A    between atoms: C_2  and  C_8 
REMARK    4  A    between atoms: C_3  and  C_4 
REMARK    5  A    between atoms: C_4  and  C_5 
REMARK    6  A    between atoms: C_8  and  C_9 
REMARK    7  A    between atoms: C_11  and  O_15 
ROOT
HETATM    1  O   UNL     1       5.140  -4.685  53.881  1.00  0.00    -0.395 OA
HETATM    2  H   UNL     1       5.037  -4.932  52.949  1.00  0.00     0.210 HD
ENDROOT
BRANCH   1   3
HETATM    3  C   UNL     1       4.426  -5.611  54.699  1.00  0.00     0.122 C 
BRANCH   3   4
HETATM    4  C   UNL     1       2.947  -5.200  54.785  1.00  0.00     0.042 C 
BRANCH   4   5
HETATM    5  C   UNL     1       2.518  -4.766  56.189  1.00  0.00     0.116 C 
BRANCH   5   6
HETATM    6  C   UNL     1       1.605  -3.569  56.259  1.00  0.00     0.172 C 
HETATM    7  O   UNL     1       0.807  -3.343  57.155  1.00  0.00    -0.648 OA
HETATM    8  O   UNL     1       1.649  -2.762  55.180  1.00  0.00    -0.648 OA
ENDBRANCH   5   6
ENDBRANCH   4   5
ENDBRANCH   3   4
BRANCH   3   9
HETATM    9  C   UNL     1       4.563  -7.032  54.119  1.00  0.00     0.070 C 
BRANCH   9  10
HETATM   10  C   UNL     1       4.299  -8.120  55.138  1.00  0.00    -0.053 A 
HETATM   11  C   UNL     1       5.171  -8.308  56.221  1.00  0.00     0.043 A 
HETATM   12  C   UNL     1       4.915  -9.311  57.155  1.00  0.00     0.066 A 
HETATM   13  C   UNL     1       3.803 -10.135  57.030  1.00  0.00     0.036 A 
HETATM   14  C   UNL     1       2.932  -9.957  55.958  1.00  0.00     0.003 A 
HETATM   15  C   UNL     1       3.178  -8.954  55.017  1.00  0.00     0.007 A 
BRANCH  12  16
HETATM   16  O   UNL     1       5.741  -9.519  58.219  1.00  0.00    -0.361 OA
HETATM   17  H   UNL     1       6.389 -10.196  58.184  1.00  0.00     0.217 HD
ENDBRANCH  12  16
ENDBRANCH   9  10
ENDBRANCH   3   9
ENDBRANCH   1   3
TORSDOF 7
ENDMDL
MODEL 2
REMARK VINA RESULT:      -6.3      2.084      5.376
REMARK  7 active torsions:
REMARK  status: ('A' for Active; 'I' for Inactive)
REMARK    1  A    between atoms: O_1  and  C_2 
REMARK    2  A    between atoms: C_2  and  C_3 
REMARK    3  A    between atoms: C_2  and  C_8 
REMARK    4  A    between atoms: C_3  and  C_4 
REMARK    5  A    between atoms: C_4  and  C_5 
REMARK    6  A    between atoms: C_8  and  C_9 
REMARK    7  A    between atoms: C_11  and  O_15 
ROOT
HETATM    1  O   UNL     1       6.237  -7.373  56.726  1.00  0.00    -0.395 OA
HETATM    2  H   UNL     1       6.282  -7.370  57.694  1.00  0.00     0.210 HD
ENDROOT
BRANCH   1   3
HETATM    3  C   UNL     1       5.581  -8.560  56.283  1.00  0.00     0.122 C 
BRANCH   3   4
HETATM    4  C   UNL     1       4.672  -9.101  57.399  1.00  0.00     0.042 C 
BRANCH   4   5
HETATM    5  C   UNL     1       4.035 -10.451  57.063  1.00  0.00     0.116 C 
BRANCH   5   6
HETATM    6  C   UNL     1       2.579 -10.416  56.676  1.00  0.00     0.172 C 
HETATM    7  O   UNL     1       1.836  -9.457  56.816  1.00  0.00    -0.648 OA
HETATM    8  O   UNL     1       2.087 -11.587  56.226  1.00  0.00    -0.648 OA
ENDBRANCH   5   6
ENDBRANCH   4   5
ENDBRANCH   3   4
BRANCH   3   9
HETATM    9  C   UNL     1       4.763  -8.260  55.012  1.00  0.00     0.070 C 
BRANCH   9  10
HETATM   10  C   UNL     1       4.212  -6.850  54.977  1.00  0.00    -0.053 A 
HETATM   11  C   UNL     1       4.676  -5.928  54.026  1.00  0.00     0.043 A 
HETATM   12  C   UNL     1       4.159  -4.634  54.003  1.00  0.00     0.066 A 
HETATM   13  C   UNL     1       3.187  -4.237  54.913  1.00  0.00     0.036 A 
HETATM   14  C   UNL     1       2.722  -5.144  55.861  1.00  0.00     0.003 A 
HETATM   15  C   UNL     1       3.231  -6.444  55.893  1.00  0.00     0.007 A 
BRANCH  12  16
HETATM   16  O   UNL     1       4.586  -3.714  53.091  1.00  0.00    -0.361 OA
HETATM   17  H   UNL     1       5.346  -3.196  53.269  1.00  0.00     0.217 HD
ENDBRANCH  12  16
ENDBRANCH   9  10
ENDBRANCH   3   9
ENDBRANCH   1   3
TORSDOF 7
ENDMDL
MODEL 3
REMARK VINA RESULT:      -6.2      4.038      5.605
REMARK  7 active torsions:
REMARK  status: ('A' for Active; 'I' for Inactive)
REMARK    1  A    between atoms: O_1  and  C_2 
REMARK    2  A    between atoms: C_2  and  C_3 
REMARK    3  A    between atoms: C_2  and  C_8 
REMARK    4  A    between atoms: C_3  and  C_4 
REMARK    5  A    between atoms: C_4  and  C_5 
REMARK    6  A    between atoms: C_8  and  C_9 
REMARK    7  A    between atoms: C_11  and  O_15 
ROOT
HETATM    1  O   UNL     1       0.634 -12.648  54.159  1.00  0.00    -0.395 OA
HETATM    2  H   UNL     1      -0.298 -12.685  54.423  1.00  0.00     0.210 HD
ENDROOT
BRANCH   1   3
HETATM    3  C   UNL     1       1.127 -11.320  54.337  1.00  0.00     0.122 C 
BRANCH   3   4
HETATM    4  C   UNL     1      -0.025 -10.313  54.194  1.00  0.00     0.042 C 
BRANCH   4   5
HETATM    5  C   UNL     1      -1.389 -10.891  54.579  1.00  0.00     0.116 C 
BRANCH   5   6
HETATM    6  C   UNL     1      -1.883 -10.553  55.962  1.00  0.00     0.172 C 
HETATM    7  O   UNL     1      -1.197 -10.098  56.864  1.00  0.00    -0.648 OA
HETATM    8  O   UNL     1      -3.171 -10.877  56.196  1.00  0.00    -0.648 OA
ENDBRANCH   5   6
ENDBRANCH   4   5
ENDBRANCH   3   4
BRANCH   3   9
HETATM    9  C   UNL     1       1.794 -11.193  55.721  1.00  0.00     0.070 C 
BRANCH   9  10
HETATM   10  C   UNL     1       2.911 -10.172  55.752  1.00  0.00    -0.053 A 
HETATM   11  C   UNL     1       3.746 -10.064  56.875  1.00  0.00     0.043 A 
HETATM   12  C   UNL     1       4.773  -9.121  56.889  1.00  0.00     0.066 A 
HETATM   13  C   UNL     1       4.984  -8.279  55.805  1.00  0.00     0.036 A 
HETATM   14  C   UNL     1       4.159  -8.377  54.686  1.00  0.00     0.003 A 
HETATM   15  C   UNL     1       3.129  -9.320  54.660  1.00  0.00     0.007 A 
BRANCH  12  16
HETATM   16  O   UNL     1       5.603  -8.991  57.963  1.00  0.00    -0.361 OA
HETATM   17  H   UNL     1       5.286  -8.605  58.756  1.00  0.00     0.217 HD
ENDBRANCH  12  16
ENDBRANCH   9  10
ENDBRANCH   3   9
ENDBRANCH   1   3
TORSDOF 7
ENDMDL
MODEL 4
REMARK VINA RESULT:      -6.2      2.071      5.608
REMARK  7 active torsions:
REMARK  status: ('A' for Active; 'I' for Inactive)
REMARK    1  A    between atoms: O_1  and  C_2 
REMARK    2  A    between atoms: C_2  and  C_3 
REMARK    3  A    between atoms: C_2  and  C_8 
REMARK    4  A    between atoms: C_3  and  C_4 
REMARK    5  A    between atoms: C_4  and  C_5 
REMARK    6  A    between atoms: C_8  and  C_9 
REMARK    7  A    between atoms: C_11  and  O_15 
ROOT
HETATM    1  O   UNL     1       2.037 -10.010  53.709  1.00  0.00    -0.395 OA
HETATM    2  H   UNL     1       1.752 -10.908  53.940  1.00  0.00     0.210 HD
ENDROOT
BRANCH   1   3
HETATM    3  C   UNL     1       2.619  -9.387  54.853  1.00  0.00     0.122 C 
BRANCH   3   4
HETATM    4  C   UNL     1       2.992 -10.454  55.895  1.00  0.00     0.042 C 
BRANCH   4   5
HETATM    5  C   UNL     1       3.317  -9.871  57.272  1.00  0.00     0.116 C 
BRANCH   5   6
HETATM    6  C   UNL     1       4.752  -9.989  57.717  1.00  0.00     0.172 C 
HETATM    7  O   UNL     1       5.249 -10.974  58.239  1.00  0.00    -0.648 OA
HETATM    8  O   UNL     1       5.478  -8.861  57.585  1.00  0.00    -0.648 OA
ENDBRANCH   5   6
ENDBRANCH   4   5
ENDBRANCH   3   4
BRANCH   3   9
HETATM    9  C   UNL     1       3.863  -8.580  54.430  1.00  0.00     0.070 C 
BRANCH   9  10
HETATM   10  C   UNL     1       3.714  -7.091  54.662  1.00  0.00    -0.053 A 
HETATM   11  C   UNL     1       4.358  -6.171  53.821  1.00  0.00     0.043 A 
HETATM   12  C   UNL     1       4.210  -4.803  54.044  1.00  0.00     0.066 A 
HETATM   13  C   UNL     1       3.432  -4.331  55.093  1.00  0.00     0.036 A 
HETATM   14  C   UNL     1       2.789  -5.236  55.934  1.00  0.00     0.003 A 
HETATM   15  C   UNL     1       2.929  -6.609  55.720  1.00  0.00     0.007 A 
BRANCH  12  16
HETATM   16  O   UNL     1       4.821  -3.883  53.244  1.00  0.00    -0.361 OA
HETATM   17  H   UNL     1       5.019  -3.031  53.577  1.00  0.00     0.217 HD
ENDBRANCH  12  16
ENDBRANCH   9  10
ENDBRANCH   3   9
ENDBRANCH   1   3
TORSDOF 7
ENDMDL
MODEL 5
REMARK VINA RESULT:      -6.2      3.514      5.252
REMARK  7 active torsions:
REMARK  status: ('A' for Active; 'I' for Inactive)
REMARK    1  A    between atoms: O_1  and  C_2 
REMARK    2  A    between atoms: C_2  and  C_3 
REMARK    3  A    between atoms: C_2  and  C_8 
REMARK    4  A    between atoms: C_3  and  C_4 
REMARK    5  A    between atoms: C_4  and  C_5 
REMARK    6  A    between atoms: C_8  and  C_9 
REMARK    7  A    between atoms: C_11  and  O_15 
ROOT
HETATM    1  O   UNL     1       2.062 -10.288  56.814  1.00  0.00    -0.395 OA
HETATM    2  H   UNL     1       1.769  -9.370  56.707  1.00  0.00     0.210 HD
ENDROOT
BRANCH   1   3
HETATM    3  C   UNL     1       2.184 -10.902  55.532  1.00  0.00     0.122 C 
BRANCH   3   4
HETATM    4  C   UNL     1       0.869 -11.607  55.163  1.00  0.00     0.042 C 
BRANCH   4   5
HETATM    5  C   UNL     1      -0.282 -10.638  54.883  1.00  0.00     0.116 C 
BRANCH   5   6
HETATM    6  C   UNL     1      -1.224 -10.383  56.032  1.00  0.00     0.172 C 
HETATM    7  O   UNL     1      -0.901  -9.935  57.121  1.00  0.00    -0.648 OA
HETATM    8  O   UNL     1      -2.495 -10.778  55.818  1.00  0.00    -0.648 OA
ENDBRANCH   5   6
ENDBRANCH   4   5
ENDBRANCH   3   4
BRANCH   3   9
HETATM    9  C   UNL     1       2.546  -9.837  54.477  1.00  0.00     0.070 C 
BRANCH   9  10
HETATM   10  C   UNL     1       3.168  -8.594  55.076  1.00  0.00    -0.053 A 
HETATM   11  C   UNL     1       4.460  -8.636  55.622  1.00  0.00     0.043 A 
HETATM   12  C   UNL     1       5.022  -7.483  56.168  1.00  0.00     0.066 A 
HETATM   13  C   UNL     1       4.320  -6.284  56.183  1.00  0.00     0.036 A 
HETATM   14  C   UNL     1       3.036  -6.233  55.644  1.00  0.00     0.003 A 
HETATM   15  C   UNL     1       2.464  -7.381  55.093  1.00  0.00     0.007 A 
BRANCH  12  16
HETATM   16  O   UNL     1       6.276  -7.490  56.705  1.00  0.00    -0.361 OA
HETATM   17  H   UNL     1       6.680  -8.301  56.941  1.00  0.00     0.217 HD
ENDBRANCH  12  16
ENDBRANCH   9  10
ENDBRANCH   3   9
ENDBRANCH   1   3
TORSDOF 7
ENDMDL
MODEL 6
REMARK VINA RESULT:      -6.1      2.227      3.283
REMARK  7 active torsions:
REMARK  status: ('A' for Active; 'I' for Inactive)
REMARK    1  A    between atoms: O_1  and  C_2 
REMARK    2  A    between atoms: C_2  and  C_3 
REMARK    3  A    between atoms: C_2  and  C_8 
REMARK    4  A    between atoms: C_3  and  C_4 
REMARK    5  A    between atoms: C_4  and  C_5 
REMARK    6  A    between atoms: C_8  and  C_9 
REMARK    7  A    between atoms: C_11  and  O_15 
ROOT
HETATM    1  O   UNL     1       5.247  -6.474  56.805  1.00  0.00    -0.395 OA
HETATM    2  H   UNL     1       4.915  -5.604  57.073  1.00  0.00     0.210 HD
ENDROOT
BRANCH   1   3
HETATM    3  C   UNL     1       4.148  -7.318  56.465  1.00  0.00     0.122 C 
BRANCH   3   4
HETATM    4  C   UNL     1       2.978  -6.468  55.945  1.00  0.00     0.042 C 
BRANCH   4   5
HETATM    5  C   UNL     1       3.406  -5.085  55.448  1.00  0.00     0.116 C 
BRANCH   5   6
HETATM    6  C   UNL     1       3.641  -4.960  53.965  1.00  0.00     0.172 C 
HETATM    7  O   UNL     1       4.369  -4.136  53.433  1.00  0.00    -0.648 OA
HETATM    8  O   UNL     1       2.899  -5.790  53.205  1.00  0.00    -0.648 OA
ENDBRANCH   5   6
ENDBRANCH   4   5
ENDBRANCH   3   4
BRANCH   3   9
HETATM    9  C   UNL     1       4.588  -8.347  55.405  1.00  0.00     0.070 C 
BRANCH   9  10
HETATM   10  C   UNL     1       3.456  -9.231  54.928  1.00  0.00    -0.053 A 
HETATM   11  C   UNL     1       2.886 -10.183  55.787  1.00  0.00     0.043 A 
HETATM   12  C   UNL     1       1.842 -10.990  55.336  1.00  0.00     0.066 A 
HETATM   13  C   UNL     1       1.354 -10.868  54.041  1.00  0.00     0.036 A 
HETATM   14  C   UNL     1       1.915  -9.928  53.180  1.00  0.00     0.003 A 
HETATM   15  C   UNL     1       2.960  -9.113  53.621  1.00  0.00     0.007 A 
BRANCH  12  16
HETATM   16  O   UNL     1       1.265 -11.923  56.146  1.00  0.00    -0.361 OA
HETATM   17  H   UNL     1       1.796 -12.439  56.719  1.00  0.00     0.217 HD
ENDBRANCH  12  16
ENDBRANCH   9  10
ENDBRANCH   3   9
ENDBRANCH   1   3
TORSDOF 7
ENDMDL
MODEL 7
REMARK VINA RESULT:      -6.0      4.136      5.792
REMARK  7 active torsions:
REMARK  status: ('A' for Active; 'I' for Inactive)
REMARK    1  A    between atoms: O_1  and  C_2 
REMARK    2  A    between atoms: C_2  and  C_3 
REMARK    3  A    between atoms: C_2  and  C_8 
REMARK    4  A    between atoms: C_3  and  C_4 
REMARK    5  A    between atoms: C_4  and  C_5 
REMARK    6  A    between atoms: C_8  and  C_9 
REMARK    7  A    between atoms: C_11  and  O_15 
ROOT
HETATM    1  O   UNL     1       0.811 -12.213  56.059  1.00  0.00    -0.395 OA
HETATM    2  H   UNL     1       0.603 -11.700  56.856  1.00  0.00     0.210 HD
ENDROOT
BRANCH   1   3
HETATM    3  C   UNL     1       1.549 -11.398  55.149  1.00  0.00     0.122 C 
BRANCH   3   4
HETATM    4  C   UNL     1       0.926 -11.485  53.747  1.00  0.00     0.042 C 
BRANCH   4   5
HETATM    5  C   UNL     1      -0.298 -10.584  53.569  1.00  0.00     0.116 C 
BRANCH   5   6
HETATM    6  C   UNL     1      -1.600 -11.126  54.102  1.00  0.00     0.172 C 
HETATM    7  O   UNL     1      -2.388 -11.812  53.472  1.00  0.00    -0.648 OA
HETATM    8  O   UNL     1      -1.911 -10.719  55.349  1.00  0.00    -0.648 OA
ENDBRANCH   5   6
ENDBRANCH   4   5
ENDBRANCH   3   4
BRANCH   3   9
HETATM    9  C   UNL     1       1.564  -9.940  55.649  1.00  0.00     0.070 C 
BRANCH   9  10
HETATM   10  C   UNL     1       2.959  -9.361  55.754  1.00  0.00    -0.053 A 
HETATM   11  C   UNL     1       3.767  -9.648  56.865  1.00  0.00     0.043 A 
HETATM   12  C   UNL     1       5.051  -9.111  56.948  1.00  0.00     0.066 A 
HETATM   13  C   UNL     1       5.547  -8.288  55.944  1.00  0.00     0.036 A 
HETATM   14  C   UNL     1       4.752  -7.997  54.839  1.00  0.00     0.003 A 
HETATM   15  C   UNL     1       3.465  -8.531  54.744  1.00  0.00     0.007 A 
BRANCH  12  16
HETATM   16  O   UNL     1       5.862  -9.371  58.013  1.00  0.00    -0.361 OA
HETATM   17  H   UNL     1       5.858 -10.220  58.409  1.00  0.00     0.217 HD
ENDBRANCH  12  16
ENDBRANCH   9  10
ENDBRANCH   3   9
ENDBRANCH   1   3
TORSDOF 7
ENDMDL
MODEL 8
REMARK VINA RESULT:      -6.0      4.448      6.217
REMARK  7 active torsions:
REMARK  status: ('A' for Active; 'I' for Inactive)
REMARK    1  A    between atoms: O_1  and  C_2 
REMARK    2  A    between atoms: C_2  and  C_3 
REMARK    3  A    between atoms: C_2  and  C_8 
REMARK    4  A    between atoms: C_3  and  C_4 
REMARK    5  A    between atoms: C_4  and  C_5 
REMARK    6  A    between atoms: C_8  and  C_9 
REMARK    7  A    between atoms: C_11  and  O_15 
ROOT
HETATM    1  O   UNL     1      -0.085 -10.917  55.947  1.00  0.00    -0.395 OA
HETATM    2  H   UNL     1      -0.164 -10.289  56.682  1.00  0.00     0.210 HD
ENDROOT
BRANCH   1   3
HETATM    3  C   UNL     1       1.241 -10.870  55.423  1.00  0.00     0.122 C 
BRANCH   3   4
HETATM    4  C   UNL     1       1.221 -11.210  53.923  1.00  0.00     0.042 C 
BRANCH   4   5
HETATM    5  C   UNL     1       0.490 -12.516  53.606  1.00  0.00     0.116 C 
BRANCH   5   6
HETATM    6  C   UNL     1      -0.793 -12.382  52.828  1.00  0.00     0.172 C 
HETATM    7  O   UNL     1      -0.971 -12.779  51.687  1.00  0.00    -0.648 OA
HETATM    8  O   UNL     1      -1.763 -11.685  53.455  1.00  0.00    -0.648 OA
ENDBRANCH   5   6
ENDBRANCH   4   5
ENDBRANCH   3   4
BRANCH   3   9
HETATM    9  C   UNL     1       1.844  -9.471  55.657  1.00  0.00     0.070 C 
BRANCH   9  10
HETATM   10  C   UNL     1       3.207  -9.513  56.315  1.00  0.00    -0.053 A 
HETATM   11  C   UNL     1       4.169  -8.533  56.025  1.00  0.00     0.043 A 
HETATM   12  C   UNL     1       5.419  -8.582  56.641  1.00  0.00     0.066 A 
HETATM   13  C   UNL     1       5.732  -9.592  57.542  1.00  0.00     0.036 A 
HETATM   14  C   UNL     1       4.784 -10.570  57.835  1.00  0.00     0.003 A 
HETATM   15  C   UNL     1       3.528 -10.530  57.226  1.00  0.00     0.007 A 
BRANCH  12  16
HETATM   16  O   UNL     1       6.375  -7.645  56.382  1.00  0.00    -0.361 OA
HETATM   17  H   UNL     1       6.130  -6.750  56.250  1.00  0.00     0.217 HD
ENDBRANCH  12  16
ENDBRANCH   9  10
ENDBRANCH   3   9
ENDBRANCH   1   3
TORSDOF 7
ENDMDL
MODEL 9
REMARK VINA RESULT:      -5.9      2.964      5.777
REMARK  7 active torsions:
REMARK  status: ('A' for Active; 'I' for Inactive)
REMARK    1  A    between atoms: O_1  and  C_2 
REMARK    2  A    between atoms: C_2  and  C_3 
REMARK    3  A    between atoms: C_2  and  C_8 
REMARK    4  A    between atoms: C_3  and  C_4 
REMARK    5  A    between atoms: C_4  and  C_5 
REMARK    6  A    between atoms: C_8  and  C_9 
REMARK    7  A    between atoms: C_11  and  O_15 
ROOT
HETATM    1  O   UNL     1       3.576 -10.846  57.432  1.00  0.00    -0.395 OA
HETATM    2  H   UNL     1       2.658 -11.140  57.538  1.00  0.00     0.210 HD
ENDROOT
BRANCH   1   3
HETATM    3  C   UNL     1       3.645  -9.862  56.401  1.00  0.00     0.122 C 
BRANCH   3   4
HETATM    4  C   UNL     1       2.226  -9.426  56.000  1.00  0.00     0.042 C 
BRANCH   4   5
HETATM    5  C   UNL     1       1.689 -10.163  54.771  1.00  0.00     0.116 C 
BRANCH   5   6
HETATM    6  C   UNL     1       1.162 -11.554  55.014  1.00  0.00     0.172 C 
HETATM    7  O   UNL     1       1.051 -12.084  56.108  1.00  0.00    -0.648 OA
HETATM    8  O   UNL     1       0.888 -12.256  53.896  1.00  0.00    -0.648 OA
ENDBRANCH   5   6
ENDBRANCH   4   5
ENDBRANCH   3   4
BRANCH   3   9
HETATM    9  C   UNL     1       4.469  -8.654  56.887  1.00  0.00     0.070 C 
BRANCH   9  10
HETATM   10  C   UNL     1       4.506  -7.517  55.888  1.00  0.00    -0.053 A 
HETATM   11  C   UNL     1       5.083  -7.700  54.622  1.00  0.00     0.043 A 
HETATM   12  C   UNL     1       5.108  -6.645  53.711  1.00  0.00     0.066 A 
HETATM   13  C   UNL     1       4.568  -5.407  54.036  1.00  0.00     0.036 A 
HETATM   14  C   UNL     1       3.993  -5.216  55.290  1.00  0.00     0.003 A 
HETATM   15  C   UNL     1       3.962  -6.265  56.211  1.00  0.00     0.007 A 
BRANCH  12  16
HETATM   16  O   UNL     1       5.660  -6.790  52.472  1.00  0.00    -0.361 OA
HETATM   17  H   UNL     1       5.651  -7.626  52.050  1.00  0.00     0.217 HD
ENDBRANCH  12  16
ENDBRANCH   9  10
ENDBRANCH   3   9
ENDBRANCH   1   3
TORSDOF 7
ENDMDL
