MODEL 1
REMARK VINA RESULT:      -6.2      0.000      0.000
REMARK  7 active torsions:
REMARK  status: ('A' for Active; 'I' for Inactive)
REMARK    1  A    between atoms: O_1  and  C_2 
REMARK    2  A    between atoms: C_2  and  C_3 
REMARK    3  A    between atoms: C_2  and  C_8 
REMARK    4  A    between atoms: C_3  and  C_4 
REMARK    5  A    between atoms: C_4  and  C_5 
REMARK    6  A    between atoms: C_8  and  C_9 
REMARK    7  A    between atoms: C_11  and  O_15 
ROOT
HETATM    1  O   UNL     1       8.094  -0.877  58.091  1.00  0.00    -0.395 OA
HETATM    2  H   UNL     1       8.588  -1.187  58.866  1.00  0.00     0.210 HD
ENDROOT
BRANCH   1   3
HETATM    3  C   UNL     1       6.880  -1.618  57.975  1.00  0.00     0.122 C 
BRANCH   3   4
HETATM    4  C   UNL     1       5.761  -0.706  57.447  1.00  0.00     0.042 C 
BRANCH   4   5
HETATM    5  C   UNL     1       6.221   0.238  56.334  1.00  0.00     0.116 C 
BRANCH   5   6
HETATM    6  C   UNL     1       5.615  -0.001  54.974  1.00  0.00     0.172 C 
HETATM    7  O   UNL     1       5.848   0.658  53.973  1.00  0.00    -0.648 OA
HETATM    8  O   UNL     1       4.684  -0.976  54.935  1.00  0.00    -0.648 OA
ENDBRANCH   5   6
ENDBRANCH   4   5
ENDBRANCH   3   4
BRANCH   3   9
HETATM    9  C   UNL     1       7.091  -2.821  57.034  1.00  0.00     0.070 C 
BRANCH   9  10
HETATM   10  C   UNL     1       5.987  -3.852  57.128  1.00  0.00    -0.053 A 
HETATM   11  C   UNL     1       5.728  -4.509  58.341  1.00  0.00     0.043 A 
HETATM   12  C   UNL     1       4.706  -5.454  58.416  1.00  0.00     0.066 A 
HETATM   13  C   UNL     1       3.935  -5.761  57.302  1.00  0.00     0.036 A 
HETATM   14  C   UNL     1       4.185  -5.115  56.093  1.00  0.00     0.003 A 
HETATM   15  C   UNL     1       5.205  -4.165  56.007  1.00  0.00     0.007 A 
BRANCH  12  16
HETATM   16  O   UNL     1       4.428  -6.109  59.579  1.00  0.00    -0.361 OA
HETATM   17  H   UNL     1       3.969  -5.668  60.266  1.00  0.00     0.217 HD
ENDBRANCH  12  16
ENDBRANCH   9  10
ENDBRANCH   3   9
ENDBRANCH   1   3
TORSDOF 7
ENDMDL
MODEL 2
REMARK VINA RESULT:      -6.1      2.235      3.108
REMARK  7 active torsions:
REMARK  status: ('A' for Active; 'I' for Inactive)
REMARK    1  A    between atoms: O_1  and  C_2 
REMARK    2  A    between atoms: C_2  and  C_3 
REMARK    3  A    between atoms: C_2  and  C_8 
REMARK    4  A    between atoms: C_3  and  C_4 
REMARK    5  A    between atoms: C_4  and  C_5 
REMARK    6  A    between atoms: C_8  and  C_9 
REMARK    7  A    between atoms: C_11  and  O_15 
ROOT
HETATM    1  O   UNL     1       6.919  -0.098  54.886  1.00  0.00    -0.395 OA
HETATM    2  H   UNL     1       6.123   0.170  54.402  1.00  0.00     0.210 HD
ENDROOT
BRANCH   1   3
HETATM    3  C   UNL     1       6.542  -0.751  56.097  1.00  0.00     0.122 C 
BRANCH   3   4
HETATM    4  C   UNL     1       5.139  -0.289  56.523  1.00  0.00     0.042 C 
BRANCH   4   5
HETATM    5  C   UNL     1       5.157   0.911  57.473  1.00  0.00     0.116 C 
BRANCH   5   6
HETATM    6  C   UNL     1       4.045   1.912  57.292  1.00  0.00     0.172 C 
HETATM    7  O   UNL     1       3.442   2.468  58.197  1.00  0.00    -0.648 OA
HETATM    8  O   UNL     1       3.667   2.110  56.013  1.00  0.00    -0.648 OA
ENDBRANCH   5   6
ENDBRANCH   4   5
ENDBRANCH   3   4
BRANCH   3   9
HETATM    9  C   UNL     1       6.575  -2.279  55.898  1.00  0.00     0.070 C 
BRANCH   9  10
HETATM   10  C   UNL     1       6.601  -3.049  57.202  1.00  0.00    -0.053 A 
HETATM   11  C   UNL     1       7.634  -2.843  58.130  1.00  0.00     0.043 A 
HETATM   12  C   UNL     1       7.644  -3.556  59.328  1.00  0.00     0.066 A 
HETATM   13  C   UNL     1       6.643  -4.475  59.621  1.00  0.00     0.036 A 
HETATM   14  C   UNL     1       5.615  -4.686  58.705  1.00  0.00     0.003 A 
HETATM   15  C   UNL     1       5.593  -3.976  57.503  1.00  0.00     0.007 A 
BRANCH  12  16
HETATM   16  O   UNL     1       8.632  -3.380  60.251  1.00  0.00    -0.361 OA
HETATM   17  H   UNL     1       9.514  -3.238  59.971  1.00  0.00     0.217 HD
ENDBRANCH  12  16
ENDBRANCH   9  10
ENDBRANCH   3   9
ENDBRANCH   1   3
TORSDOF 7
ENDMDL
MODEL 3
REMARK VINA RESULT:      -6.1      1.597      5.293
REMARK  7 active torsions:
REMARK  status: ('A' for Active; 'I' for Inactive)
REMARK    1  A    between atoms: O_1  and  C_2 
REMARK    2  A    between atoms: C_2  and  C_3 
REMARK    3  A    between atoms: C_2  and  C_8 
REMARK    4  A    between atoms: C_3  and  C_4 
REMARK    5  A    between atoms: C_4  and  C_5 
REMARK    6  A    between atoms: C_8  and  C_9 
REMARK    7  A    between atoms: C_11  and  O_15 
ROOT
HETATM    1  O   UNL     1       8.279  -0.910  58.359  1.00  0.00    -0.395 OA
HETATM    2  H   UNL     1       8.781  -0.452  57.667  1.00  0.00     0.210 HD
ENDROOT
BRANCH   1   3
HETATM    3  C   UNL     1       7.424  -1.883  57.762  1.00  0.00     0.122 C 
BRANCH   3   4
HETATM    4  C   UNL     1       7.310  -3.111  58.680  1.00  0.00     0.042 C 
BRANCH   4   5
HETATM    5  C   UNL     1       6.297  -4.146  58.186  1.00  0.00     0.116 C 
BRANCH   5   6
HETATM    6  C   UNL     1       5.348  -4.688  59.224  1.00  0.00     0.172 C 
HETATM    7  O   UNL     1       5.403  -5.805  59.715  1.00  0.00    -0.648 OA
HETATM    8  O   UNL     1       4.326  -3.867  59.538  1.00  0.00    -0.648 OA
ENDBRANCH   5   6
ENDBRANCH   4   5
ENDBRANCH   3   4
BRANCH   3   9
HETATM    9  C   UNL     1       6.036  -1.267  57.501  1.00  0.00     0.070 C 
BRANCH   9  10
HETATM   10  C   UNL     1       5.679  -1.205  56.031  1.00  0.00    -0.053 A 
HETATM   11  C   UNL     1       5.990  -0.068  55.269  1.00  0.00     0.043 A 
HETATM   12  C   UNL     1       5.659  -0.025  53.916  1.00  0.00     0.066 A 
HETATM   13  C   UNL     1       5.019  -1.095  53.303  1.00  0.00     0.036 A 
HETATM   14  C   UNL     1       4.705  -2.228  54.051  1.00  0.00     0.003 A 
HETATM   15  C   UNL     1       5.034  -2.283  55.407  1.00  0.00     0.007 A 
BRANCH  12  16
HETATM   16  O   UNL     1       5.949   1.064  53.148  1.00  0.00    -0.361 OA
HETATM   17  H   UNL     1       6.725   1.560  53.313  1.00  0.00     0.217 HD
ENDBRANCH  12  16
ENDBRANCH   9  10
ENDBRANCH   3   9
ENDBRANCH   1   3
TORSDOF 7
ENDMDL
MODEL 4
REMARK VINA RESULT:      -6.0      1.122      1.859
REMARK  7 active torsions:
REMARK  status: ('A' for Active; 'I' for Inactive)
REMARK    1  A    between atoms: O_1  and  C_2 
REMARK    2  A    between atoms: C_2  and  C_3 
REMARK    3  A    between atoms: C_2  and  C_8 
REMARK    4  A    between atoms: C_3  and  C_4 
REMARK    5  A    between atoms: C_4  and  C_5 
REMARK    6  A    between atoms: C_8  and  C_9 
REMARK    7  A    between atoms: C_11  and  O_15 
ROOT
HETATM    1  O   UNL     1       8.219  -0.820  58.078  1.00  0.00    -0.395 OA
HETATM    2  H   UNL     1       8.927  -1.421  57.798  1.00  0.00     0.210 HD
ENDROOT
BRANCH   1   3
HETATM    3  C   UNL     1       6.962  -1.491  57.986  1.00  0.00     0.122 C 
BRANCH   3   4
HETATM    4  C   UNL     1       5.884  -0.512  57.494  1.00  0.00     0.042 C 
BRANCH   4   5
HETATM    5  C   UNL     1       6.281   0.243  56.224  1.00  0.00     0.116 C 
BRANCH   5   6
HETATM    6  C   UNL     1       5.513  -0.113  54.977  1.00  0.00     0.172 C 
HETATM    7  O   UNL     1       4.692  -1.012  54.888  1.00  0.00    -0.648 OA
HETATM    8  O   UNL     1       5.859   0.591  53.881  1.00  0.00    -0.648 OA
ENDBRANCH   5   6
ENDBRANCH   4   5
ENDBRANCH   3   4
BRANCH   3   9
HETATM    9  C   UNL     1       7.083  -2.694  57.030  1.00  0.00     0.070 C 
BRANCH   9  10
HETATM   10  C   UNL     1       6.039  -3.760  57.280  1.00  0.00    -0.053 A 
HETATM   11  C   UNL     1       5.203  -4.197  56.241  1.00  0.00     0.043 A 
HETATM   12  C   UNL     1       4.247  -5.182  56.484  1.00  0.00     0.066 A 
HETATM   13  C   UNL     1       4.105  -5.742  57.748  1.00  0.00     0.036 A 
HETATM   14  C   UNL     1       4.928  -5.314  58.786  1.00  0.00     0.003 A 
HETATM   15  C   UNL     1       5.891  -4.329  58.554  1.00  0.00     0.007 A 
BRANCH  12  16
HETATM   16  O   UNL     1       3.421  -5.630  55.496  1.00  0.00    -0.361 OA
HETATM   17  H   UNL     1       2.778  -6.284  55.684  1.00  0.00     0.217 HD
ENDBRANCH  12  16
ENDBRANCH   9  10
ENDBRANCH   3   9
ENDBRANCH   1   3
TORSDOF 7
ENDMDL
MODEL 5
REMARK VINA RESULT:      -5.9      3.193      5.991
REMARK  7 active torsions:
REMARK  status: ('A' for Active; 'I' for Inactive)
REMARK    1  A    between atoms: O_1  and  C_2 
REMARK    2  A    between atoms: C_2  and  C_3 
REMARK    3  A    between atoms: C_2  and  C_8 
REMARK    4  A    between atoms: C_3  and  C_4 
REMARK    5  A    between atoms: C_4  and  C_5 
REMARK    6  A    between atoms: C_8  and  C_9 
REMARK    7  A    between atoms: C_11  and  O_15 
ROOT
HETATM    1  O   UNL     1       3.211  -7.684  57.946  1.00  0.00    -0.395 OA
HETATM    2  H   UNL     1       2.419  -7.850  58.481  1.00  0.00     0.210 HD
ENDROOT
BRANCH   1   3
HETATM    3  C   UNL     1       3.416  -6.277  57.824  1.00  0.00     0.122 C 
BRANCH   3   4
HETATM    4  C   UNL     1       2.064  -5.546  57.872  1.00  0.00     0.042 C 
BRANCH   4   5
HETATM    5  C   UNL     1       1.281  -5.631  56.560  1.00  0.00     0.116 C 
BRANCH   5   6
HETATM    6  C   UNL     1       0.286  -6.758  56.457  1.00  0.00     0.172 C 
HETATM    7  O   UNL     1       0.210  -7.704  57.225  1.00  0.00    -0.648 OA
HETATM    8  O   UNL     1      -0.502  -6.717  55.364  1.00  0.00    -0.648 OA
ENDBRANCH   5   6
ENDBRANCH   4   5
ENDBRANCH   3   4
BRANCH   3   9
HETATM    9  C   UNL     1       4.341  -5.786  58.955  1.00  0.00     0.070 C 
BRANCH   9  10
HETATM   10  C   UNL     1       5.392  -4.804  58.481  1.00  0.00    -0.053 A 
HETATM   11  C   UNL     1       6.402  -4.367  59.351  1.00  0.00     0.043 A 
HETATM   12  C   UNL     1       7.365  -3.466  58.901  1.00  0.00     0.066 A 
HETATM   13  C   UNL     1       7.342  -2.988  57.596  1.00  0.00     0.036 A 
HETATM   14  C   UNL     1       6.342  -3.415  56.725  1.00  0.00     0.003 A 
HETATM   15  C   UNL     1       5.373  -4.319  57.165  1.00  0.00     0.007 A 
BRANCH  12  16
HETATM   16  O   UNL     1       8.361  -3.022  59.720  1.00  0.00    -0.361 OA
HETATM   17  H   UNL     1       8.563  -2.108  59.759  1.00  0.00     0.217 HD
ENDBRANCH  12  16
ENDBRANCH   9  10
ENDBRANCH   3   9
ENDBRANCH   1   3
TORSDOF 7
ENDMDL
MODEL 6
REMARK VINA RESULT:      -5.9      2.256      5.896
REMARK  7 active torsions:
REMARK  status: ('A' for Active; 'I' for Inactive)
REMARK    1  A    between atoms: O_1  and  C_2 
REMARK    2  A    between atoms: C_2  and  C_3 
REMARK    3  A    between atoms: C_2  and  C_8 
REMARK    4  A    between atoms: C_3  and  C_4 
REMARK    5  A    between atoms: C_4  and  C_5 
REMARK    6  A    between atoms: C_8  and  C_9 
REMARK    7  A    between atoms: C_11  and  O_15 
ROOT
HETATM    1  O   UNL     1       3.717  -4.065  59.294  1.00  0.00    -0.395 OA
HETATM    2  H   UNL     1       3.211  -3.299  59.605  1.00  0.00     0.210 HD
ENDROOT
BRANCH   1   3
HETATM    3  C   UNL     1       5.007  -3.638  58.858  1.00  0.00     0.122 C 
BRANCH   3   4
HETATM    4  C   UNL     1       6.084  -4.593  59.400  1.00  0.00     0.042 C 
BRANCH   4   5
HETATM    5  C   UNL     1       7.458  -3.937  59.548  1.00  0.00     0.116 C 
BRANCH   5   6
HETATM    6  C   UNL     1       8.217  -4.273  60.807  1.00  0.00     0.172 C 
HETATM    7  O   UNL     1       8.700  -5.363  61.069  1.00  0.00    -0.648 OA
HETATM    8  O   UNL     1       8.262  -3.282  61.719  1.00  0.00    -0.648 OA
ENDBRANCH   5   6
ENDBRANCH   4   5
ENDBRANCH   3   4
BRANCH   3   9
HETATM    9  C   UNL     1       5.047  -3.588  57.318  1.00  0.00     0.070 C 
BRANCH   9  10
HETATM   10  C   UNL     1       5.288  -2.197  56.773  1.00  0.00    -0.053 A 
HETATM   11  C   UNL     1       5.099  -1.923  55.410  1.00  0.00     0.043 A 
HETATM   12  C   UNL     1       5.322  -0.637  54.921  1.00  0.00     0.066 A 
HETATM   13  C   UNL     1       5.730   0.387  55.767  1.00  0.00     0.036 A 
HETATM   14  C   UNL     1       5.921   0.125  57.121  1.00  0.00     0.003 A 
HETATM   15  C   UNL     1       5.700  -1.159  57.622  1.00  0.00     0.007 A 
BRANCH  12  16
HETATM   16  O   UNL     1       5.146  -0.338  53.603  1.00  0.00    -0.361 OA
HETATM   17  H   UNL     1       5.559  -0.861  52.944  1.00  0.00     0.217 HD
ENDBRANCH  12  16
ENDBRANCH   9  10
ENDBRANCH   3   9
ENDBRANCH   1   3
TORSDOF 7
ENDMDL
MODEL 7
REMARK VINA RESULT:      -5.9      2.710      6.040
REMARK  7 active torsions:
REMARK  status: ('A' for Active; 'I' for Inactive)
REMARK    1  A    between atoms: O_1  and  C_2 
REMARK    2  A    between atoms: C_2  and  C_3 
REMARK    3  A    between atoms: C_2  and  C_8 
REMARK    4  A    between atoms: C_3  and  C_4 
REMARK    5  A    between atoms: C_4  and  C_5 
REMARK    6  A    between atoms: C_8  and  C_9 
REMARK    7  A    between atoms: C_11  and  O_15 
ROOT
HETATM    1  O   UNL     1       3.456  -6.534  59.712  1.00  0.00    -0.395 OA
HETATM    2  H   UNL     1       4.105  -6.868  60.350  1.00  0.00     0.210 HD
ENDROOT
BRANCH   1   3
HETATM    3  C   UNL     1       4.121  -6.175  58.501  1.00  0.00     0.122 C 
BRANCH   3   4
HETATM    4  C   UNL     1       3.306  -6.665  57.293  1.00  0.00     0.042 C 
BRANCH   4   5
HETATM    5  C   UNL     1       2.084  -5.795  56.993  1.00  0.00     0.116 C 
BRANCH   5   6
HETATM    6  C   UNL     1       0.861  -6.064  57.831  1.00  0.00     0.172 C 
HETATM    7  O   UNL     1      -0.004  -6.886  57.572  1.00  0.00    -0.648 OA
HETATM    8  O   UNL     1       0.713  -5.245  58.892  1.00  0.00    -0.648 OA
ENDBRANCH   5   6
ENDBRANCH   4   5
ENDBRANCH   3   4
BRANCH   3   9
HETATM    9  C   UNL     1       4.314  -4.647  58.446  1.00  0.00     0.070 C 
BRANCH   9  10
HETATM   10  C   UNL     1       5.735  -4.216  58.740  1.00  0.00    -0.053 A 
HETATM   11  C   UNL     1       6.412  -3.351  57.866  1.00  0.00     0.043 A 
HETATM   12  C   UNL     1       7.720  -2.959  58.150  1.00  0.00     0.066 A 
HETATM   13  C   UNL     1       8.369  -3.414  59.291  1.00  0.00     0.036 A 
HETATM   14  C   UNL     1       7.706  -4.273  60.164  1.00  0.00     0.003 A 
HETATM   15  C   UNL     1       6.396  -4.671  59.890  1.00  0.00     0.007 A 
BRANCH  12  16
HETATM   16  O   UNL     1       8.405  -2.119  57.323  1.00  0.00    -0.361 OA
HETATM   17  H   UNL     1       8.506  -1.216  57.552  1.00  0.00     0.217 HD
ENDBRANCH  12  16
ENDBRANCH   9  10
ENDBRANCH   3   9
ENDBRANCH   1   3
TORSDOF 7
ENDMDL
MODEL 8
REMARK VINA RESULT:      -5.8      2.476      6.032
REMARK  7 active torsions:
REMARK  status: ('A' for Active; 'I' for Inactive)
REMARK    1  A    between atoms: O_1  and  C_2 
REMARK    2  A    between atoms: C_2  and  C_3 
REMARK    3  A    between atoms: C_2  and  C_8 
REMARK    4  A    between atoms: C_3  and  C_4 
REMARK    5  A    between atoms: C_4  and  C_5 
REMARK    6  A    between atoms: C_8  and  C_9 
REMARK    7  A    between atoms: C_11  and  O_15 
ROOT
HETATM    1  O   UNL     1       8.396  -1.378  57.849  1.00  0.00    -0.395 OA
HETATM    2  H   UNL     1       9.208  -1.161  57.365  1.00  0.00     0.210 HD
ENDROOT
BRANCH   1   3
HETATM    3  C   UNL     1       8.061  -2.747  57.624  1.00  0.00     0.122 C 
BRANCH   3   4
HETATM    4  C   UNL     1       7.575  -3.388  58.934  1.00  0.00     0.042 C 
BRANCH   4   5
HETATM    5  C   UNL     1       8.686  -4.095  59.712  1.00  0.00     0.116 C 
BRANCH   5   6
HETATM    6  C   UNL     1       8.393  -4.390  61.161  1.00  0.00     0.172 C 
HETATM    7  O   UNL     1       7.975  -3.580  61.974  1.00  0.00    -0.648 OA
HETATM    8  O   UNL     1       8.717  -5.636  61.560  1.00  0.00    -0.648 OA
ENDBRANCH   5   6
ENDBRANCH   4   5
ENDBRANCH   3   4
BRANCH   3   9
HETATM    9  C   UNL     1       6.974  -2.844  56.534  1.00  0.00     0.070 C 
BRANCH   9  10
HETATM   10  C   UNL     1       6.310  -1.517  56.236  1.00  0.00    -0.053 A 
HETATM   11  C   UNL     1       6.382  -0.957  54.951  1.00  0.00     0.043 A 
HETATM   12  C   UNL     1       5.763   0.265  54.689  1.00  0.00     0.066 A 
HETATM   13  C   UNL     1       5.073   0.943  55.686  1.00  0.00     0.036 A 
HETATM   14  C   UNL     1       4.996   0.396  56.964  1.00  0.00     0.003 A 
HETATM   15  C   UNL     1       5.611  -0.828  57.238  1.00  0.00     0.007 A 
BRANCH  12  16
HETATM   16  O   UNL     1       5.813   0.835  53.452  1.00  0.00    -0.361 OA
HETATM   17  H   UNL     1       6.174   1.693  53.346  1.00  0.00     0.217 HD
ENDBRANCH  12  16
ENDBRANCH   9  10
ENDBRANCH   3   9
ENDBRANCH   1   3
TORSDOF 7
ENDMDL
MODEL 9
REMARK VINA RESULT:      -5.7      2.136      3.257
REMARK  7 active torsions:
REMARK  status: ('A' for Active; 'I' for Inactive)
REMARK    1  A    between atoms: O_1  and  C_2 
REMARK    2  A    between atoms: C_2  and  C_3 
REMARK    3  A    between atoms: C_2  and  C_8 
REMARK    4  A    between atoms: C_3  and  C_4 
REMARK    5  A    between atoms: C_4  and  C_5 
REMARK    6  A    between atoms: C_8  and  C_9 
REMARK    7  A    between atoms: C_11  and  O_15 
ROOT
HETATM    1  O   UNL     1       6.911  -0.161  54.856  1.00  0.00    -0.395 OA
HETATM    2  H   UNL     1       7.697  -0.128  55.424  1.00  0.00     0.210 HD
ENDROOT
BRANCH   1   3
HETATM    3  C   UNL     1       6.015  -1.160  55.344  1.00  0.00     0.122 C 
BRANCH   3   4
HETATM    4  C   UNL     1       4.795  -1.264  54.414  1.00  0.00     0.042 C 
BRANCH   4   5
HETATM    5  C   UNL     1       5.034  -2.160  53.197  1.00  0.00     0.116 C 
BRANCH   5   6
HETATM    6  C   UNL     1       5.344  -1.449  51.905  1.00  0.00     0.172 C 
HETATM    7  O   UNL     1       4.743  -1.603  50.854  1.00  0.00    -0.648 OA
HETATM    8  O   UNL     1       6.435  -0.657  51.944  1.00  0.00    -0.648 OA
ENDBRANCH   5   6
ENDBRANCH   4   5
ENDBRANCH   3   4
BRANCH   3   9
HETATM    9  C   UNL     1       6.745  -2.514  55.439  1.00  0.00     0.070 C 
BRANCH   9  10
HETATM   10  C   UNL     1       6.676  -3.132  56.819  1.00  0.00    -0.053 A 
HETATM   11  C   UNL     1       7.662  -2.848  57.777  1.00  0.00     0.043 A 
HETATM   12  C   UNL     1       7.584  -3.422  59.045  1.00  0.00     0.066 A 
HETATM   13  C   UNL     1       6.542  -4.277  59.379  1.00  0.00     0.036 A 
HETATM   14  C   UNL     1       5.559  -4.565  58.435  1.00  0.00     0.003 A 
HETATM   15  C   UNL     1       5.625  -3.995  57.162  1.00  0.00     0.007 A 
BRANCH  12  16
HETATM   16  O   UNL     1       8.525  -3.166  59.999  1.00  0.00    -0.361 OA
HETATM   17  H   UNL     1       8.976  -3.874  60.414  1.00  0.00     0.217 HD
ENDBRANCH  12  16
ENDBRANCH   9  10
ENDBRANCH   3   9
ENDBRANCH   1   3
TORSDOF 7
ENDMDL
