MODEL 1
REMARK VINA RESULT:      -6.1      0.000      0.000
REMARK  7 active torsions:
REMARK  status: ('A' for Active; 'I' for Inactive)
REMARK    1  A    between atoms: O_1  and  C_2 
REMARK    2  A    between atoms: C_2  and  C_3 
REMARK    3  A    between atoms: C_2  and  C_8 
REMARK    4  A    between atoms: C_3  and  C_4 
REMARK    5  A    between atoms: C_4  and  C_5 
REMARK    6  A    between atoms: C_8  and  C_9 
REMARK    7  A    between atoms: C_11  and  O_15 
ROOT
HETATM    1  O   UNL     1       8.309  -0.895  58.109  1.00  0.00    -0.395 OA
HETATM    2  H   UNL     1       8.510  -0.701  57.181  1.00  0.00     0.210 HD
ENDROOT
BRANCH   1   3
HETATM    3  C   UNL     1       7.152  -1.728  58.181  1.00  0.00     0.122 C 
BRANCH   3   4
HETATM    4  C   UNL     1       5.912  -0.938  57.732  1.00  0.00     0.042 C 
BRANCH   4   5
HETATM    5  C   UNL     1       6.240   0.228  56.797  1.00  0.00     0.116 C 
BRANCH   5   6
HETATM    6  C   UNL     1       5.818   0.061  55.360  1.00  0.00     0.172 C 
HETATM    7  O   UNL     1       4.789   0.502  54.872  1.00  0.00    -0.648 OA
HETATM    8  O   UNL     1       6.632  -0.717  54.620  1.00  0.00    -0.648 OA
ENDBRANCH   5   6
ENDBRANCH   4   5
ENDBRANCH   3   4
BRANCH   3   9
HETATM    9  C   UNL     1       7.353  -2.975  57.298  1.00  0.00     0.070 C 
BRANCH   9  10
HETATM   10  C   UNL     1       6.150  -3.894  57.283  1.00  0.00    -0.053 A 
HETATM   11  C   UNL     1       5.774  -4.595  58.440  1.00  0.00     0.043 A 
HETATM   12  C   UNL     1       4.663  -5.435  58.413  1.00  0.00     0.066 A 
HETATM   13  C   UNL     1       3.915  -5.594  57.253  1.00  0.00     0.036 A 
HETATM   14  C   UNL     1       4.281  -4.904  56.100  1.00  0.00     0.003 A 
HETATM   15  C   UNL     1       5.392  -4.058  56.115  1.00  0.00     0.007 A 
BRANCH  12  16
HETATM   16  O   UNL     1       4.270  -6.129  59.520  1.00  0.00    -0.361 OA
HETATM   17  H   UNL     1       3.715  -6.878  59.431  1.00  0.00     0.217 HD
ENDBRANCH  12  16
ENDBRANCH   9  10
ENDBRANCH   3   9
ENDBRANCH   1   3
TORSDOF 7
ENDMDL
MODEL 2
REMARK VINA RESULT:      -6.1      2.038      3.162
REMARK  7 active torsions:
REMARK  status: ('A' for Active; 'I' for Inactive)
REMARK    1  A    between atoms: O_1  and  C_2 
REMARK    2  A    between atoms: C_2  and  C_3 
REMARK    3  A    between atoms: C_2  and  C_8 
REMARK    4  A    between atoms: C_3  and  C_4 
REMARK    5  A    between atoms: C_4  and  C_5 
REMARK    6  A    between atoms: C_8  and  C_9 
REMARK    7  A    between atoms: C_11  and  O_15 
ROOT
HETATM    1  O   UNL     1       7.068  -0.223  54.450  1.00  0.00    -0.395 OA
HETATM    2  H   UNL     1       7.206   0.732  54.548  1.00  0.00     0.210 HD
ENDROOT
BRANCH   1   3
HETATM    3  C   UNL     1       6.495  -0.745  55.648  1.00  0.00     0.122 C 
BRANCH   3   4
HETATM    4  C   UNL     1       5.120  -0.102  55.892  1.00  0.00     0.042 C 
BRANCH   4   5
HETATM    5  C   UNL     1       5.040   0.684  57.203  1.00  0.00     0.116 C 
BRANCH   5   6
HETATM    6  C   UNL     1       4.120   1.877  57.202  1.00  0.00     0.172 C 
HETATM    7  O   UNL     1       3.649   2.405  58.197  1.00  0.00    -0.648 OA
HETATM    8  O   UNL     1       3.749   2.302  55.977  1.00  0.00    -0.648 OA
ENDBRANCH   5   6
ENDBRANCH   4   5
ENDBRANCH   3   4
BRANCH   3   9
HETATM    9  C   UNL     1       6.369  -2.278  55.540  1.00  0.00     0.070 C 
BRANCH   9  10
HETATM   10  C   UNL     1       6.445  -2.977  56.881  1.00  0.00    -0.053 A 
HETATM   11  C   UNL     1       7.511  -2.722  57.758  1.00  0.00     0.043 A 
HETATM   12  C   UNL     1       7.568  -3.370  58.990  1.00  0.00     0.066 A 
HETATM   13  C   UNL     1       6.581  -4.272  59.369  1.00  0.00     0.036 A 
HETATM   14  C   UNL     1       5.520  -4.533  58.505  1.00  0.00     0.003 A 
HETATM   15  C   UNL     1       5.451  -3.888  57.268  1.00  0.00     0.007 A 
BRANCH  12  16
HETATM   16  O   UNL     1       8.588  -3.144  59.866  1.00  0.00    -0.361 OA
HETATM   17  H   UNL     1       8.599  -2.362  60.381  1.00  0.00     0.217 HD
ENDBRANCH  12  16
ENDBRANCH   9  10
ENDBRANCH   3   9
ENDBRANCH   1   3
TORSDOF 7
ENDMDL
MODEL 3
REMARK VINA RESULT:      -6.1      3.106      5.829
REMARK  7 active torsions:
REMARK  status: ('A' for Active; 'I' for Inactive)
REMARK    1  A    between atoms: O_1  and  C_2 
REMARK    2  A    between atoms: C_2  and  C_3 
REMARK    3  A    between atoms: C_2  and  C_8 
REMARK    4  A    between atoms: C_3  and  C_4 
REMARK    5  A    between atoms: C_4  and  C_5 
REMARK    6  A    between atoms: C_8  and  C_9 
REMARK    7  A    between atoms: C_11  and  O_15 
ROOT
HETATM    1  O   UNL     1       3.186  -7.550  57.882  1.00  0.00    -0.395 OA
HETATM    2  H   UNL     1       2.355  -7.691  57.403  1.00  0.00     0.210 HD
ENDROOT
BRANCH   1   3
HETATM    3  C   UNL     1       3.651  -6.221  57.647  1.00  0.00     0.122 C 
BRANCH   3   4
HETATM    4  C   UNL     1       2.456  -5.289  57.388  1.00  0.00     0.042 C 
BRANCH   4   5
HETATM    5  C   UNL     1       1.187  -5.707  58.134  1.00  0.00     0.116 C 
BRANCH   5   6
HETATM    6  C   UNL     1       0.866  -4.924  59.381  1.00  0.00     0.172 C 
HETATM    7  O   UNL     1       1.662  -4.245  60.011  1.00  0.00    -0.648 OA
HETATM    8  O   UNL     1      -0.389  -5.089  59.844  1.00  0.00    -0.648 OA
ENDBRANCH   5   6
ENDBRANCH   4   5
ENDBRANCH   3   4
BRANCH   3   9
HETATM    9  C   UNL     1       4.469  -5.734  58.859  1.00  0.00     0.070 C 
BRANCH   9  10
HETATM   10  C   UNL     1       5.551  -4.743  58.487  1.00  0.00    -0.053 A 
HETATM   11  C   UNL     1       6.523  -4.363  59.426  1.00  0.00     0.043 A 
HETATM   12  C   UNL     1       7.516  -3.452  59.069  1.00  0.00     0.066 A 
HETATM   13  C   UNL     1       7.560  -2.907  57.792  1.00  0.00     0.036 A 
HETATM   14  C   UNL     1       6.599  -3.277  56.853  1.00  0.00     0.003 A 
HETATM   15  C   UNL     1       5.600  -4.190  57.199  1.00  0.00     0.007 A 
BRANCH  12  16
HETATM   16  O   UNL     1       8.475  -3.064  59.957  1.00  0.00    -0.361 OA
HETATM   17  H   UNL     1       8.239  -2.570  60.716  1.00  0.00     0.217 HD
ENDBRANCH  12  16
ENDBRANCH   9  10
ENDBRANCH   3   9
ENDBRANCH   1   3
TORSDOF 7
ENDMDL
MODEL 4
REMARK VINA RESULT:      -6.0      1.588      5.124
REMARK  7 active torsions:
REMARK  status: ('A' for Active; 'I' for Inactive)
REMARK    1  A    between atoms: O_1  and  C_2 
REMARK    2  A    between atoms: C_2  and  C_3 
REMARK    3  A    between atoms: C_2  and  C_8 
REMARK    4  A    between atoms: C_3  and  C_4 
REMARK    5  A    between atoms: C_4  and  C_5 
REMARK    6  A    between atoms: C_8  and  C_9 
REMARK    7  A    between atoms: C_11  and  O_15 
ROOT
HETATM    1  O   UNL     1       8.354  -0.994  58.349  1.00  0.00    -0.395 OA
HETATM    2  H   UNL     1       8.351  -0.191  57.805  1.00  0.00     0.210 HD
ENDROOT
BRANCH   1   3
HETATM    3  C   UNL     1       7.495  -1.970  57.760  1.00  0.00     0.122 C 
BRANCH   3   4
HETATM    4  C   UNL     1       7.352  -3.176  58.703  1.00  0.00     0.042 C 
BRANCH   4   5
HETATM    5  C   UNL     1       5.900  -3.500  59.061  1.00  0.00     0.116 C 
BRANCH   5   6
HETATM    6  C   UNL     1       5.402  -4.857  58.634  1.00  0.00     0.172 C 
HETATM    7  O   UNL     1       5.032  -5.149  57.508  1.00  0.00    -0.648 OA
HETATM    8  O   UNL     1       5.296  -5.757  59.631  1.00  0.00    -0.648 OA
ENDBRANCH   5   6
ENDBRANCH   4   5
ENDBRANCH   3   4
BRANCH   3   9
HETATM    9  C   UNL     1       6.118  -1.342  57.467  1.00  0.00     0.070 C 
BRANCH   9  10
HETATM   10  C   UNL     1       5.791  -1.288  55.989  1.00  0.00    -0.053 A 
HETATM   11  C   UNL     1       6.019  -0.116  55.252  1.00  0.00     0.043 A 
HETATM   12  C   UNL     1       5.716  -0.080  53.892  1.00  0.00     0.066 A 
HETATM   13  C   UNL     1       5.188  -1.192  53.248  1.00  0.00     0.036 A 
HETATM   14  C   UNL     1       4.958  -2.360  53.972  1.00  0.00     0.003 A 
HETATM   15  C   UNL     1       5.259  -2.408  55.335  1.00  0.00     0.007 A 
BRANCH  12  16
HETATM   16  O   UNL     1       5.926   1.043  53.147  1.00  0.00    -0.361 OA
HETATM   17  H   UNL     1       6.460   1.735  53.483  1.00  0.00     0.217 HD
ENDBRANCH  12  16
ENDBRANCH   9  10
ENDBRANCH   3   9
ENDBRANCH   1   3
TORSDOF 7
ENDMDL
MODEL 5
REMARK VINA RESULT:      -6.0      2.088      3.143
REMARK  7 active torsions:
REMARK  status: ('A' for Active; 'I' for Inactive)
REMARK    1  A    between atoms: O_1  and  C_2 
REMARK    2  A    between atoms: C_2  and  C_3 
REMARK    3  A    between atoms: C_2  and  C_8 
REMARK    4  A    between atoms: C_3  and  C_4 
REMARK    5  A    between atoms: C_4  and  C_5 
REMARK    6  A    between atoms: C_8  and  C_9 
REMARK    7  A    between atoms: C_11  and  O_15 
ROOT
HETATM    1  O   UNL     1       7.356  -0.614  53.925  1.00  0.00    -0.395 OA
HETATM    2  H   UNL     1       7.903   0.154  54.150  1.00  0.00     0.210 HD
ENDROOT
BRANCH   1   3
HETATM    3  C   UNL     1       6.730  -1.113  55.107  1.00  0.00     0.122 C 
BRANCH   3   4
HETATM    4  C   UNL     1       5.232  -0.770  55.087  1.00  0.00     0.042 C 
BRANCH   4   5
HETATM    5  C   UNL     1       4.924   0.636  55.607  1.00  0.00     0.116 C 
BRANCH   5   6
HETATM    6  C   UNL     1       5.062   0.834  57.095  1.00  0.00     0.172 C 
HETATM    7  O   UNL     1       5.830   0.220  57.819  1.00  0.00    -0.648 OA
HETATM    8  O   UNL     1       4.186   1.706  57.632  1.00  0.00    -0.648 OA
ENDBRANCH   5   6
ENDBRANCH   4   5
ENDBRANCH   3   4
BRANCH   3   9
HETATM    9  C   UNL     1       6.939  -2.638  55.203  1.00  0.00     0.070 C 
BRANCH   9  10
HETATM   10  C   UNL     1       6.788  -3.171  56.611  1.00  0.00    -0.053 A 
HETATM   11  C   UNL     1       7.737  -2.859  57.597  1.00  0.00     0.043 A 
HETATM   12  C   UNL     1       7.585  -3.354  58.891  1.00  0.00     0.066 A 
HETATM   13  C   UNL     1       6.503  -4.159  59.225  1.00  0.00     0.036 A 
HETATM   14  C   UNL     1       5.556  -4.476  58.253  1.00  0.00     0.003 A 
HETATM   15  C   UNL     1       5.697  -3.984  56.954  1.00  0.00     0.007 A 
BRANCH  12  16
HETATM   16  O   UNL     1       8.488  -3.068  59.872  1.00  0.00    -0.361 OA
HETATM   17  H   UNL     1       9.397  -2.988  59.663  1.00  0.00     0.217 HD
ENDBRANCH  12  16
ENDBRANCH   9  10
ENDBRANCH   3   9
ENDBRANCH   1   3
TORSDOF 7
ENDMDL
MODEL 6
REMARK VINA RESULT:      -6.0      1.288      1.783
REMARK  7 active torsions:
REMARK  status: ('A' for Active; 'I' for Inactive)
REMARK    1  A    between atoms: O_1  and  C_2 
REMARK    2  A    between atoms: C_2  and  C_3 
REMARK    3  A    between atoms: C_2  and  C_8 
REMARK    4  A    between atoms: C_3  and  C_4 
REMARK    5  A    between atoms: C_4  and  C_5 
REMARK    6  A    between atoms: C_8  and  C_9 
REMARK    7  A    between atoms: C_11  and  O_15 
ROOT
HETATM    1  O   UNL     1       8.219  -0.812  58.081  1.00  0.00    -0.395 OA
HETATM    2  H   UNL     1       8.220  -0.248  58.870  1.00  0.00     0.210 HD
ENDROOT
BRANCH   1   3
HETATM    3  C   UNL     1       6.959  -1.472  57.969  1.00  0.00     0.122 C 
BRANCH   3   4
HETATM    4  C   UNL     1       5.895  -0.482  57.467  1.00  0.00     0.042 C 
BRANCH   4   5
HETATM    5  C   UNL     1       6.304   0.253  56.188  1.00  0.00     0.116 C 
BRANCH   5   6
HETATM    6  C   UNL     1       5.506  -0.078  54.954  1.00  0.00     0.172 C 
HETATM    7  O   UNL     1       4.675  -0.968  54.869  1.00  0.00    -0.648 OA
HETATM    8  O   UNL     1       5.836   0.639  53.860  1.00  0.00    -0.648 OA
ENDBRANCH   5   6
ENDBRANCH   4   5
ENDBRANCH   3   4
BRANCH   3   9
HETATM    9  C   UNL     1       7.082  -2.672  57.010  1.00  0.00     0.070 C 
BRANCH   9  10
HETATM   10  C   UNL     1       6.037  -3.739  57.254  1.00  0.00    -0.053 A 
HETATM   11  C   UNL     1       5.198  -4.167  56.213  1.00  0.00     0.043 A 
HETATM   12  C   UNL     1       4.242  -5.152  56.451  1.00  0.00     0.066 A 
HETATM   13  C   UNL     1       4.102  -5.722  57.710  1.00  0.00     0.036 A 
HETATM   14  C   UNL     1       4.929  -5.304  58.750  1.00  0.00     0.003 A 
HETATM   15  C   UNL     1       5.892  -4.319  58.523  1.00  0.00     0.007 A 
BRANCH  12  16
HETATM   16  O   UNL     1       3.412  -5.590  55.462  1.00  0.00    -0.361 OA
HETATM   17  H   UNL     1       2.898  -4.977  54.975  1.00  0.00     0.217 HD
ENDBRANCH  12  16
ENDBRANCH   9  10
ENDBRANCH   3   9
ENDBRANCH   1   3
TORSDOF 7
ENDMDL
MODEL 7
REMARK VINA RESULT:      -5.9      2.966      5.741
REMARK  7 active torsions:
REMARK  status: ('A' for Active; 'I' for Inactive)
REMARK    1  A    between atoms: O_1  and  C_2 
REMARK    2  A    between atoms: C_2  and  C_3 
REMARK    3  A    between atoms: C_2  and  C_8 
REMARK    4  A    between atoms: C_3  and  C_4 
REMARK    5  A    between atoms: C_4  and  C_5 
REMARK    6  A    between atoms: C_8  and  C_9 
REMARK    7  A    between atoms: C_11  and  O_15 
ROOT
HETATM    1  O   UNL     1       3.611  -6.521  59.700  1.00  0.00    -0.395 OA
HETATM    2  H   UNL     1       4.247  -7.180  60.019  1.00  0.00     0.210 HD
ENDROOT
BRANCH   1   3
HETATM    3  C   UNL     1       4.178  -5.806  58.602  1.00  0.00     0.122 C 
BRANCH   3   4
HETATM    4  C   UNL     1       3.476  -6.212  57.297  1.00  0.00     0.042 C 
BRANCH   4   5
HETATM    5  C   UNL     1       2.169  -5.455  57.049  1.00  0.00     0.116 C 
BRANCH   5   6
HETATM    6  C   UNL     1       1.002  -5.854  57.915  1.00  0.00     0.172 C 
HETATM    7  O   UNL     1       0.698  -5.327  58.974  1.00  0.00    -0.648 OA
HETATM    8  O   UNL     1       0.325  -6.938  57.486  1.00  0.00    -0.648 OA
ENDBRANCH   5   6
ENDBRANCH   4   5
ENDBRANCH   3   4
BRANCH   3   9
HETATM    9  C   UNL     1       4.045  -4.290  58.845  1.00  0.00     0.070 C 
BRANCH   9  10
HETATM   10  C   UNL     1       5.328  -3.530  58.582  1.00  0.00    -0.053 A 
HETATM   11  C   UNL     1       6.514  -3.885  59.244  1.00  0.00     0.043 A 
HETATM   12  C   UNL     1       7.689  -3.179  58.991  1.00  0.00     0.066 A 
HETATM   13  C   UNL     1       7.707  -2.122  58.090  1.00  0.00     0.036 A 
HETATM   14  C   UNL     1       6.535  -1.762  57.429  1.00  0.00     0.003 A 
HETATM   15  C   UNL     1       5.352  -2.463  57.673  1.00  0.00     0.007 A 
BRANCH  12  16
HETATM   16  O   UNL     1       8.858  -3.499  59.616  1.00  0.00    -0.361 OA
HETATM   17  H   UNL     1       8.863  -4.136  60.302  1.00  0.00     0.217 HD
ENDBRANCH  12  16
ENDBRANCH   9  10
ENDBRANCH   3   9
ENDBRANCH   1   3
TORSDOF 7
ENDMDL
MODEL 8
REMARK VINA RESULT:      -5.9      2.510      6.088
REMARK  7 active torsions:
REMARK  status: ('A' for Active; 'I' for Inactive)
REMARK    1  A    between atoms: O_1  and  C_2 
REMARK    2  A    between atoms: C_2  and  C_3 
REMARK    3  A    between atoms: C_2  and  C_8 
REMARK    4  A    between atoms: C_3  and  C_4 
REMARK    5  A    between atoms: C_4  and  C_5 
REMARK    6  A    between atoms: C_8  and  C_9 
REMARK    7  A    between atoms: C_11  and  O_15 
ROOT
HETATM    1  O   UNL     1       3.366  -6.258  59.743  1.00  0.00    -0.395 OA
HETATM    2  H   UNL     1       3.128  -5.353  59.996  1.00  0.00     0.210 HD
ENDROOT
BRANCH   1   3
HETATM    3  C   UNL     1       4.061  -6.236  58.496  1.00  0.00     0.122 C 
BRANCH   3   4
HETATM    4  C   UNL     1       3.226  -6.950  57.421  1.00  0.00     0.042 C 
BRANCH   4   5
HETATM    5  C   UNL     1       2.058  -6.109  56.901  1.00  0.00     0.116 C 
BRANCH   5   6
HETATM    6  C   UNL     1       0.815  -6.108  57.753  1.00  0.00     0.172 C 
HETATM    7  O   UNL     1       0.623  -5.387  58.719  1.00  0.00    -0.648 OA
HETATM    8  O   UNL     1      -0.088  -7.057  57.435  1.00  0.00    -0.648 OA
ENDBRANCH   5   6
ENDBRANCH   4   5
ENDBRANCH   3   4
BRANCH   3   9
HETATM    9  C   UNL     1       4.346  -4.778  58.085  1.00  0.00     0.070 C 
BRANCH   9  10
HETATM   10  C   UNL     1       5.715  -4.296  58.515  1.00  0.00    -0.053 A 
HETATM   11  C   UNL     1       6.454  -3.428  57.696  1.00  0.00     0.043 A 
HETATM   12  C   UNL     1       7.713  -2.989  58.105  1.00  0.00     0.066 A 
HETATM   13  C   UNL     1       8.253  -3.400  59.317  1.00  0.00     0.036 A 
HETATM   14  C   UNL     1       7.528  -4.262  60.136  1.00  0.00     0.003 A 
HETATM   15  C   UNL     1       6.266  -4.707  59.738  1.00  0.00     0.007 A 
BRANCH  12  16
HETATM   16  O   UNL     1       8.455  -2.145  57.333  1.00  0.00    -0.361 OA
HETATM   17  H   UNL     1       8.533  -1.242  57.569  1.00  0.00     0.217 HD
ENDBRANCH  12  16
ENDBRANCH   9  10
ENDBRANCH   3   9
ENDBRANCH   1   3
TORSDOF 7
ENDMDL
MODEL 9
REMARK VINA RESULT:      -5.8      2.146      5.482
REMARK  7 active torsions:
REMARK  status: ('A' for Active; 'I' for Inactive)
REMARK    1  A    between atoms: O_1  and  C_2 
REMARK    2  A    between atoms: C_2  and  C_3 
REMARK    3  A    between atoms: C_2  and  C_8 
REMARK    4  A    between atoms: C_3  and  C_4 
REMARK    5  A    between atoms: C_4  and  C_5 
REMARK    6  A    between atoms: C_8  and  C_9 
REMARK    7  A    between atoms: C_11  and  O_15 
ROOT
HETATM    1  O   UNL     1       3.927  -6.754  59.612  1.00  0.00    -0.395 OA
HETATM    2  H   UNL     1       2.976  -6.938  59.561  1.00  0.00     0.210 HD
ENDROOT
BRANCH   1   3
HETATM    3  C   UNL     1       4.240  -5.641  58.775  1.00  0.00     0.122 C 
BRANCH   3   4
HETATM    4  C   UNL     1       3.111  -4.601  58.847  1.00  0.00     0.042 C 
BRANCH   4   5
HETATM    5  C   UNL     1       1.712  -5.220  58.818  1.00  0.00     0.116 C 
BRANCH   5   6
HETATM    6  C   UNL     1       1.268  -5.786  57.494  1.00  0.00     0.172 C 
HETATM    7  O   UNL     1       0.714  -6.862  57.337  1.00  0.00    -0.648 OA
HETATM    8  O   UNL     1       1.611  -5.045  56.420  1.00  0.00    -0.648 OA
ENDBRANCH   5   6
ENDBRANCH   4   5
ENDBRANCH   3   4
BRANCH   3   9
HETATM    9  C   UNL     1       5.581  -5.021  59.214  1.00  0.00     0.070 C 
BRANCH   9  10
HETATM   10  C   UNL     1       6.122  -4.010  58.225  1.00  0.00    -0.053 A 
HETATM   11  C   UNL     1       7.019  -3.015  58.642  1.00  0.00     0.043 A 
HETATM   12  C   UNL     1       7.511  -2.092  57.720  1.00  0.00     0.066 A 
HETATM   13  C   UNL     1       7.125  -2.139  56.387  1.00  0.00     0.036 A 
HETATM   14  C   UNL     1       6.234  -3.123  55.963  1.00  0.00     0.003 A 
HETATM   15  C   UNL     1       5.735  -4.054  56.877  1.00  0.00     0.007 A 
BRANCH  12  16
HETATM   16  O   UNL     1       8.385  -1.113  58.093  1.00  0.00    -0.361 OA
HETATM   17  H   UNL     1       8.129  -0.214  58.046  1.00  0.00     0.217 HD
ENDBRANCH  12  16
ENDBRANCH   9  10
ENDBRANCH   3   9
ENDBRANCH   1   3
TORSDOF 7
ENDMDL
