MODEL 1
REMARK VINA RESULT:      -6.2      0.000      0.000
REMARK  7 active torsions:
REMARK  status: ('A' for Active; 'I' for Inactive)
REMARK    1  A    between atoms: O_1  and  C_2 
REMARK    2  A    between atoms: C_2  and  C_3 
REMARK    3  A    between atoms: C_2  and  C_8 
REMARK    4  A    between atoms: C_3  and  C_4 
REMARK    5  A    between atoms: C_4  and  C_5 
REMARK    6  A    between atoms: C_8  and  C_9 
REMARK    7  A    between atoms: C_11  and  O_15 
ROOT
HETATM    1  O   UNL     1       8.140  -0.890  58.167  1.00  0.00    -0.395 OA
HETATM    2  H   UNL     1       8.729  -1.084  57.421  1.00  0.00     0.210 HD
ENDROOT
BRANCH   1   3
HETATM    3  C   UNL     1       6.909  -1.591  57.995  1.00  0.00     0.122 C 
BRANCH   3   4
HETATM    4  C   UNL     1       5.838  -0.637  57.441  1.00  0.00     0.042 C 
BRANCH   4   5
HETATM    5  C   UNL     1       6.291   0.127  56.196  1.00  0.00     0.116 C 
BRANCH   5   6
HETATM    6  C   UNL     1       5.494  -0.123  54.942  1.00  0.00     0.172 C 
HETATM    7  O   UNL     1       4.657  -1.001  54.802  1.00  0.00    -0.648 OA
HETATM    8  O   UNL     1       5.830   0.656  53.894  1.00  0.00    -0.648 OA
ENDBRANCH   5   6
ENDBRANCH   4   5
ENDBRANCH   3   4
BRANCH   3   9
HETATM    9  C   UNL     1       7.118  -2.786  57.044  1.00  0.00     0.070 C 
BRANCH   9  10
HETATM   10  C   UNL     1       6.011  -3.815  57.128  1.00  0.00    -0.053 A 
HETATM   11  C   UNL     1       5.744  -4.476  58.337  1.00  0.00     0.043 A 
HETATM   12  C   UNL     1       4.720  -5.420  58.402  1.00  0.00     0.066 A 
HETATM   13  C   UNL     1       3.955  -5.721  57.282  1.00  0.00     0.036 A 
HETATM   14  C   UNL     1       4.214  -5.072  56.078  1.00  0.00     0.003 A 
HETATM   15  C   UNL     1       5.236  -4.123  56.001  1.00  0.00     0.007 A 
BRANCH  12  16
HETATM   16  O   UNL     1       4.433  -6.078  59.561  1.00  0.00    -0.361 OA
HETATM   17  H   UNL     1       3.557  -6.357  59.737  1.00  0.00     0.217 HD
ENDBRANCH  12  16
ENDBRANCH   9  10
ENDBRANCH   3   9
ENDBRANCH   1   3
TORSDOF 7
ENDMDL
MODEL 2
REMARK VINA RESULT:      -6.1      2.319      3.121
REMARK  7 active torsions:
REMARK  status: ('A' for Active; 'I' for Inactive)
REMARK    1  A    between atoms: O_1  and  C_2 
REMARK    2  A    between atoms: C_2  and  C_3 
REMARK    3  A    between atoms: C_2  and  C_8 
REMARK    4  A    between atoms: C_3  and  C_4 
REMARK    5  A    between atoms: C_4  and  C_5 
REMARK    6  A    between atoms: C_8  and  C_9 
REMARK    7  A    between atoms: C_11  and  O_15 
ROOT
HETATM    1  O   UNL     1       7.137  -0.948  54.919  1.00  0.00    -0.395 OA
HETATM    2  H   UNL     1       7.828  -1.625  54.981  1.00  0.00     0.210 HD
ENDROOT
BRANCH   1   3
HETATM    3  C   UNL     1       6.281  -1.035  56.057  1.00  0.00     0.122 C 
BRANCH   3   4
HETATM    4  C   UNL     1       5.191   0.046  55.975  1.00  0.00     0.042 C 
BRANCH   4   5
HETATM    5  C   UNL     1       5.056   0.872  57.256  1.00  0.00     0.116 C 
BRANCH   5   6
HETATM    6  C   UNL     1       4.002   1.949  57.239  1.00  0.00     0.172 C 
HETATM    7  O   UNL     1       3.513   2.472  58.228  1.00  0.00    -0.648 OA
HETATM    8  O   UNL     1       3.533   2.260  56.014  1.00  0.00    -0.648 OA
ENDBRANCH   5   6
ENDBRANCH   4   5
ENDBRANCH   3   4
BRANCH   3   9
HETATM    9  C   UNL     1       5.651  -2.440  56.129  1.00  0.00     0.070 C 
BRANCH   9  10
HETATM   10  C   UNL     1       6.014  -3.192  57.392  1.00  0.00    -0.053 A 
HETATM   11  C   UNL     1       7.177  -2.864  58.106  1.00  0.00     0.043 A 
HETATM   12  C   UNL     1       7.499  -3.562  59.269  1.00  0.00     0.066 A 
HETATM   13  C   UNL     1       6.683  -4.585  59.736  1.00  0.00     0.036 A 
HETATM   14  C   UNL     1       5.528  -4.918  59.034  1.00  0.00     0.003 A 
HETATM   15  C   UNL     1       5.194  -4.225  57.868  1.00  0.00     0.007 A 
BRANCH  12  16
HETATM   16  O   UNL     1       8.620  -3.267  59.987  1.00  0.00    -0.361 OA
HETATM   17  H   UNL     1       9.451  -3.215  59.557  1.00  0.00     0.217 HD
ENDBRANCH  12  16
ENDBRANCH   9  10
ENDBRANCH   3   9
ENDBRANCH   1   3
TORSDOF 7
ENDMDL
MODEL 3
REMARK VINA RESULT:      -6.0      1.115      1.855
REMARK  7 active torsions:
REMARK  status: ('A' for Active; 'I' for Inactive)
REMARK    1  A    between atoms: O_1  and  C_2 
REMARK    2  A    between atoms: C_2  and  C_3 
REMARK    3  A    between atoms: C_2  and  C_8 
REMARK    4  A    between atoms: C_3  and  C_4 
REMARK    5  A    between atoms: C_4  and  C_5 
REMARK    6  A    between atoms: C_8  and  C_9 
REMARK    7  A    between atoms: C_11  and  O_15 
ROOT
HETATM    1  O   UNL     1       8.168  -0.808  58.064  1.00  0.00    -0.395 OA
HETATM    2  H   UNL     1       8.368  -0.620  58.994  1.00  0.00     0.210 HD
ENDROOT
BRANCH   1   3
HETATM    3  C   UNL     1       6.926  -1.506  57.976  1.00  0.00     0.122 C 
BRANCH   3   4
HETATM    4  C   UNL     1       5.837  -0.567  57.432  1.00  0.00     0.042 C 
BRANCH   4   5
HETATM    5  C   UNL     1       6.306   0.287  56.251  1.00  0.00     0.116 C 
BRANCH   5   6
HETATM    6  C   UNL     1       5.647   0.000  54.927  1.00  0.00     0.172 C 
HETATM    7  O   UNL     1       5.796   0.657  53.908  1.00  0.00    -0.648 OA
HETATM    8  O   UNL     1       4.766  -1.020  54.944  1.00  0.00    -0.648 OA
ENDBRANCH   5   6
ENDBRANCH   4   5
ENDBRANCH   3   4
BRANCH   3   9
HETATM    9  C   UNL     1       7.085  -2.740  57.067  1.00  0.00     0.070 C 
BRANCH   9  10
HETATM   10  C   UNL     1       6.031  -3.799  57.311  1.00  0.00    -0.053 A 
HETATM   11  C   UNL     1       5.186  -4.214  56.270  1.00  0.00     0.043 A 
HETATM   12  C   UNL     1       4.220  -5.192  56.507  1.00  0.00     0.066 A 
HETATM   13  C   UNL     1       4.078  -5.765  57.765  1.00  0.00     0.036 A 
HETATM   14  C   UNL     1       4.912  -5.358  58.804  1.00  0.00     0.003 A 
HETATM   15  C   UNL     1       5.883  -4.381  58.578  1.00  0.00     0.007 A 
BRANCH  12  16
HETATM   16  O   UNL     1       3.385  -5.619  55.518  1.00  0.00    -0.361 OA
HETATM   17  H   UNL     1       2.996  -6.470  55.568  1.00  0.00     0.217 HD
ENDBRANCH  12  16
ENDBRANCH   9  10
ENDBRANCH   3   9
ENDBRANCH   1   3
TORSDOF 7
ENDMDL
MODEL 4
REMARK VINA RESULT:      -6.0      1.588      5.219
REMARK  7 active torsions:
REMARK  status: ('A' for Active; 'I' for Inactive)
REMARK    1  A    between atoms: O_1  and  C_2 
REMARK    2  A    between atoms: C_2  and  C_3 
REMARK    3  A    between atoms: C_2  and  C_8 
REMARK    4  A    between atoms: C_3  and  C_4 
REMARK    5  A    between atoms: C_4  and  C_5 
REMARK    6  A    between atoms: C_8  and  C_9 
REMARK    7  A    between atoms: C_11  and  O_15 
ROOT
HETATM    1  O   UNL     1       8.421  -1.076  58.305  1.00  0.00    -0.395 OA
HETATM    2  H   UNL     1       8.035  -0.210  58.102  1.00  0.00     0.210 HD
ENDROOT
BRANCH   1   3
HETATM    3  C   UNL     1       7.587  -2.104  57.772  1.00  0.00     0.122 C 
BRANCH   3   4
HETATM    4  C   UNL     1       7.360  -3.194  58.833  1.00  0.00     0.042 C 
BRANCH   4   5
HETATM    5  C   UNL     1       5.881  -3.465  59.118  1.00  0.00     0.116 C 
BRANCH   5   6
HETATM    6  C   UNL     1       5.379  -4.838  58.749  1.00  0.00     0.172 C 
HETATM    7  O   UNL     1       5.252  -5.773  59.524  1.00  0.00    -0.648 OA
HETATM    8  O   UNL     1       5.149  -5.020  57.434  1.00  0.00    -0.648 OA
ENDBRANCH   5   6
ENDBRANCH   4   5
ENDBRANCH   3   4
BRANCH   3   9
HETATM    9  C   UNL     1       6.244  -1.501  57.314  1.00  0.00     0.070 C 
BRANCH   9  10
HETATM   10  C   UNL     1       6.122  -1.395  55.809  1.00  0.00    -0.053 A 
HETATM   11  C   UNL     1       6.021  -0.140  55.189  1.00  0.00     0.043 A 
HETATM   12  C   UNL     1       5.912  -0.056  53.802  1.00  0.00     0.066 A 
HETATM   13  C   UNL     1       5.900  -1.202  53.016  1.00  0.00     0.036 A 
HETATM   14  C   UNL     1       5.998  -2.452  53.622  1.00  0.00     0.003 A 
HETATM   15  C   UNL     1       6.110  -2.549  55.011  1.00  0.00     0.007 A 
BRANCH  12  16
HETATM   16  O   UNL     1       5.814   1.147  53.169  1.00  0.00    -0.361 OA
HETATM   17  H   UNL     1       4.978   1.461  52.885  1.00  0.00     0.217 HD
ENDBRANCH  12  16
ENDBRANCH   9  10
ENDBRANCH   3   9
ENDBRANCH   1   3
TORSDOF 7
ENDMDL
MODEL 5
REMARK VINA RESULT:      -5.9      3.118      5.716
REMARK  7 active torsions:
REMARK  status: ('A' for Active; 'I' for Inactive)
REMARK    1  A    between atoms: O_1  and  C_2 
REMARK    2  A    between atoms: C_2  and  C_3 
REMARK    3  A    between atoms: C_2  and  C_8 
REMARK    4  A    between atoms: C_3  and  C_4 
REMARK    5  A    between atoms: C_4  and  C_5 
REMARK    6  A    between atoms: C_8  and  C_9 
REMARK    7  A    between atoms: C_11  and  O_15 
ROOT
HETATM    1  O   UNL     1       3.648  -6.523  59.693  1.00  0.00    -0.395 OA
HETATM    2  H   UNL     1       3.031  -7.204  59.383  1.00  0.00     0.210 HD
ENDROOT
BRANCH   1   3
HETATM    3  C   UNL     1       4.176  -5.814  58.573  1.00  0.00     0.122 C 
BRANCH   3   4
HETATM    4  C   UNL     1       3.454  -6.253  57.290  1.00  0.00     0.042 C 
BRANCH   4   5
HETATM    5  C   UNL     1       2.138  -5.511  57.048  1.00  0.00     0.116 C 
BRANCH   5   6
HETATM    6  C   UNL     1       0.953  -5.990  57.847  1.00  0.00     0.172 C 
HETATM    7  O   UNL     1       0.186  -6.877  57.506  1.00  0.00    -0.648 OA
HETATM    8  O   UNL     1       0.716  -5.294  58.977  1.00  0.00    -0.648 OA
ENDBRANCH   5   6
ENDBRANCH   4   5
ENDBRANCH   3   4
BRANCH   3   9
HETATM    9  C   UNL     1       4.017  -4.297  58.796  1.00  0.00     0.070 C 
BRANCH   9  10
HETATM   10  C   UNL     1       5.291  -3.521  58.535  1.00  0.00    -0.053 A 
HETATM   11  C   UNL     1       6.489  -3.886  59.169  1.00  0.00     0.043 A 
HETATM   12  C   UNL     1       7.656  -3.164  58.918  1.00  0.00     0.066 A 
HETATM   13  C   UNL     1       7.653  -2.082  58.048  1.00  0.00     0.036 A 
HETATM   14  C   UNL     1       6.468  -1.711  57.415  1.00  0.00     0.003 A 
HETATM   15  C   UNL     1       5.294  -2.427  57.657  1.00  0.00     0.007 A 
BRANCH  12  16
HETATM   16  O   UNL     1       8.836  -3.494  59.516  1.00  0.00    -0.361 OA
HETATM   17  H   UNL     1       9.507  -3.922  59.023  1.00  0.00     0.217 HD
ENDBRANCH  12  16
ENDBRANCH   9  10
ENDBRANCH   3   9
ENDBRANCH   1   3
TORSDOF 7
ENDMDL
MODEL 6
REMARK VINA RESULT:      -5.9      2.223      5.862
REMARK  7 active torsions:
REMARK  status: ('A' for Active; 'I' for Inactive)
REMARK    1  A    between atoms: O_1  and  C_2 
REMARK    2  A    between atoms: C_2  and  C_3 
REMARK    3  A    between atoms: C_2  and  C_8 
REMARK    4  A    between atoms: C_3  and  C_4 
REMARK    5  A    between atoms: C_4  and  C_5 
REMARK    6  A    between atoms: C_8  and  C_9 
REMARK    7  A    between atoms: C_11  and  O_15 
ROOT
HETATM    1  O   UNL     1       3.682  -4.305  59.163  1.00  0.00    -0.395 OA
HETATM    2  H   UNL     1       3.530  -4.196  60.115  1.00  0.00     0.210 HD
ENDROOT
BRANCH   1   3
HETATM    3  C   UNL     1       4.958  -3.764  58.821  1.00  0.00     0.122 C 
BRANCH   3   4
HETATM    4  C   UNL     1       6.072  -4.639  59.419  1.00  0.00     0.042 C 
BRANCH   4   5
HETATM    5  C   UNL     1       7.409  -3.908  59.558  1.00  0.00     0.116 C 
BRANCH   5   6
HETATM    6  C   UNL     1       8.232  -4.262  60.770  1.00  0.00     0.172 C 
HETATM    7  O   UNL     1       8.756  -5.346  60.973  1.00  0.00    -0.648 OA
HETATM    8  O   UNL     1       8.290  -3.301  61.713  1.00  0.00    -0.648 OA
ENDBRANCH   5   6
ENDBRANCH   4   5
ENDBRANCH   3   4
BRANCH   3   9
HETATM    9  C   UNL     1       5.094  -3.680  57.288  1.00  0.00     0.070 C 
BRANCH   9  10
HETATM   10  C   UNL     1       5.279  -2.264  56.784  1.00  0.00    -0.053 A 
HETATM   11  C   UNL     1       5.096  -1.962  55.426  1.00  0.00     0.043 A 
HETATM   12  C   UNL     1       5.267  -0.654  54.975  1.00  0.00     0.066 A 
HETATM   13  C   UNL     1       5.620   0.363  55.853  1.00  0.00     0.036 A 
HETATM   14  C   UNL     1       5.806   0.073  57.203  1.00  0.00     0.003 A 
HETATM   15  C   UNL     1       5.635  -1.234  57.666  1.00  0.00     0.007 A 
BRANCH  12  16
HETATM   16  O   UNL     1       5.095  -0.327  53.663  1.00  0.00    -0.361 OA
HETATM   17  H   UNL     1       4.775  -0.966  53.059  1.00  0.00     0.217 HD
ENDBRANCH  12  16
ENDBRANCH   9  10
ENDBRANCH   3   9
ENDBRANCH   1   3
TORSDOF 7
ENDMDL
MODEL 7
REMARK VINA RESULT:      -5.9      3.164      5.971
REMARK  7 active torsions:
REMARK  status: ('A' for Active; 'I' for Inactive)
REMARK    1  A    between atoms: O_1  and  C_2 
REMARK    2  A    between atoms: C_2  and  C_3 
REMARK    3  A    between atoms: C_2  and  C_8 
REMARK    4  A    between atoms: C_3  and  C_4 
REMARK    5  A    between atoms: C_4  and  C_5 
REMARK    6  A    between atoms: C_8  and  C_9 
REMARK    7  A    between atoms: C_11  and  O_15 
ROOT
HETATM    1  O   UNL     1       3.244  -7.733  57.893  1.00  0.00    -0.395 OA
HETATM    2  H   UNL     1       4.111  -8.165  57.933  1.00  0.00     0.210 HD
ENDROOT
BRANCH   1   3
HETATM    3  C   UNL     1       3.420  -6.324  57.753  1.00  0.00     0.122 C 
BRANCH   3   4
HETATM    4  C   UNL     1       2.053  -5.622  57.778  1.00  0.00     0.042 C 
BRANCH   4   5
HETATM    5  C   UNL     1       1.329  -5.653  56.430  1.00  0.00     0.116 C 
BRANCH   5   6
HETATM    6  C   UNL     1       0.287  -6.730  56.266  1.00  0.00     0.172 C 
HETATM    7  O   UNL     1      -0.555  -6.766  55.383  1.00  0.00    -0.648 OA
HETATM    8  O   UNL     1       0.273  -7.655  57.246  1.00  0.00    -0.648 OA
ENDBRANCH   5   6
ENDBRANCH   4   5
ENDBRANCH   3   4
BRANCH   3   9
HETATM    9  C   UNL     1       4.324  -5.797  58.886  1.00  0.00     0.070 C 
BRANCH   9  10
HETATM   10  C   UNL     1       5.368  -4.813  58.405  1.00  0.00    -0.053 A 
HETATM   11  C   UNL     1       6.370  -4.355  59.275  1.00  0.00     0.043 A 
HETATM   12  C   UNL     1       7.328  -3.451  58.818  1.00  0.00     0.066 A 
HETATM   13  C   UNL     1       7.307  -2.989  57.508  1.00  0.00     0.036 A 
HETATM   14  C   UNL     1       6.315  -3.436  56.637  1.00  0.00     0.003 A 
HETATM   15  C   UNL     1       5.352  -4.344  57.083  1.00  0.00     0.007 A 
BRANCH  12  16
HETATM   16  O   UNL     1       8.315  -2.988  59.637  1.00  0.00    -0.361 OA
HETATM   17  H   UNL     1       8.743  -3.572  60.232  1.00  0.00     0.217 HD
ENDBRANCH  12  16
ENDBRANCH   9  10
ENDBRANCH   3   9
ENDBRANCH   1   3
TORSDOF 7
ENDMDL
MODEL 8
REMARK VINA RESULT:      -5.8      2.055      3.162
REMARK  7 active torsions:
REMARK  status: ('A' for Active; 'I' for Inactive)
REMARK    1  A    between atoms: O_1  and  C_2 
REMARK    2  A    between atoms: C_2  and  C_3 
REMARK    3  A    between atoms: C_2  and  C_8 
REMARK    4  A    between atoms: C_3  and  C_4 
REMARK    5  A    between atoms: C_4  and  C_5 
REMARK    6  A    between atoms: C_8  and  C_9 
REMARK    7  A    between atoms: C_11  and  O_15 
ROOT
HETATM    1  O   UNL     1       6.401  -2.847  53.677  1.00  0.00    -0.395 OA
HETATM    2  H   UNL     1       7.347  -2.671  53.556  1.00  0.00     0.210 HD
ENDROOT
BRANCH   1   3
HETATM    3  C   UNL     1       6.023  -2.519  55.013  1.00  0.00     0.122 C 
BRANCH   3   4
HETATM    4  C   UNL     1       5.096  -1.292  55.008  1.00  0.00     0.042 C 
BRANCH   4   5
HETATM    5  C   UNL     1       5.803   0.005  55.408  1.00  0.00     0.116 C 
BRANCH   5   6
HETATM    6  C   UNL     1       5.671   0.409  56.854  1.00  0.00     0.172 C 
HETATM    7  O   UNL     1       6.369  -0.002  57.767  1.00  0.00    -0.648 OA
HETATM    8  O   UNL     1       4.629   1.222  57.120  1.00  0.00    -0.648 OA
ENDBRANCH   5   6
ENDBRANCH   4   5
ENDBRANCH   3   4
BRANCH   3   9
HETATM    9  C   UNL     1       5.324  -3.727  55.668  1.00  0.00     0.070 C 
BRANCH   9  10
HETATM   10  C   UNL     1       5.766  -3.968  57.096  1.00  0.00    -0.053 A 
HETATM   11  C   UNL     1       6.892  -3.308  57.614  1.00  0.00     0.043 A 
HETATM   12  C   UNL     1       7.287  -3.537  58.931  1.00  0.00     0.066 A 
HETATM   13  C   UNL     1       6.582  -4.414  59.746  1.00  0.00     0.036 A 
HETATM   14  C   UNL     1       5.465  -5.075  59.240  1.00  0.00     0.003 A 
HETATM   15  C   UNL     1       5.058  -4.852  57.923  1.00  0.00     0.007 A 
BRANCH  12  16
HETATM   16  O   UNL     1       8.374  -2.911  59.465  1.00  0.00    -0.361 OA
HETATM   17  H   UNL     1       8.694  -3.165  60.308  1.00  0.00     0.217 HD
ENDBRANCH  12  16
ENDBRANCH   9  10
ENDBRANCH   3   9
ENDBRANCH   1   3
TORSDOF 7
ENDMDL
MODEL 9
REMARK VINA RESULT:      -5.7      1.693      1.884
REMARK  7 active torsions:
REMARK  status: ('A' for Active; 'I' for Inactive)
REMARK    1  A    between atoms: O_1  and  C_2 
REMARK    2  A    between atoms: C_2  and  C_3 
REMARK    3  A    between atoms: C_2  and  C_8 
REMARK    4  A    between atoms: C_3  and  C_4 
REMARK    5  A    between atoms: C_4  and  C_5 
REMARK    6  A    between atoms: C_8  and  C_9 
REMARK    7  A    between atoms: C_11  and  O_15 
ROOT
HETATM    1  O   UNL     1       8.016  -2.296  58.756  1.00  0.00    -0.395 OA
HETATM    2  H   UNL     1       8.580  -3.046  58.510  1.00  0.00     0.210 HD
ENDROOT
BRANCH   1   3
HETATM    3  C   UNL     1       6.696  -2.511  58.258  1.00  0.00     0.122 C 
BRANCH   3   4
HETATM    4  C   UNL     1       6.421  -1.559  57.083  1.00  0.00     0.042 C 
BRANCH   4   5
HETATM    5  C   UNL     1       6.213  -0.105  57.514  1.00  0.00     0.116 C 
BRANCH   5   6
HETATM    6  C   UNL     1       5.115   0.643  56.804  1.00  0.00     0.172 C 
HETATM    7  O   UNL     1       4.846   0.542  55.618  1.00  0.00    -0.648 OA
HETATM    8  O   UNL     1       4.465   1.546  57.565  1.00  0.00    -0.648 OA
ENDBRANCH   5   6
ENDBRANCH   4   5
ENDBRANCH   3   4
BRANCH   3   9
HETATM    9  C   UNL     1       6.538  -3.980  57.818  1.00  0.00     0.070 C 
BRANCH   9  10
HETATM   10  C   UNL     1       5.094  -4.432  57.763  1.00  0.00    -0.053 A 
HETATM   11  C   UNL     1       4.268  -4.316  58.892  1.00  0.00     0.043 A 
HETATM   12  C   UNL     1       2.940  -4.734  58.828  1.00  0.00     0.066 A 
HETATM   13  C   UNL     1       2.416  -5.269  57.658  1.00  0.00     0.036 A 
HETATM   14  C   UNL     1       3.228  -5.389  56.533  1.00  0.00     0.003 A 
HETATM   15  C   UNL     1       4.560  -4.972  56.585  1.00  0.00     0.007 A 
BRANCH  12  16
HETATM   16  O   UNL     1       2.111  -4.634  59.906  1.00  0.00    -0.361 OA
HETATM   17  H   UNL     1       2.424  -4.256  60.704  1.00  0.00     0.217 HD
ENDBRANCH  12  16
ENDBRANCH   9  10
ENDBRANCH   3   9
ENDBRANCH   1   3
TORSDOF 7
ENDMDL
