MODEL 1
REMARK VINA RESULT:      -6.1      0.000      0.000
REMARK  6 active torsions:
REMARK  status: ('A' for Active; 'I' for Inactive)
REMARK    1  A    between atoms: O_1  and  C_8 
REMARK    2  A    between atoms: O_2  and  C_11 
REMARK    3  A    between atoms: O_3  and  C_13 
REMARK    4  A    between atoms: C_6  and  C_7 
REMARK    5  A    between atoms: C_6  and  C_8 
REMARK    6  A    between atoms: C_8  and  C_14 
ROOT
HETATM    1  O   UNL     1      12.278   4.928   8.700  1.00  0.00    -0.385 OA
HETATM    2  H   UNL     1      12.200   5.889   8.811  1.00  0.00     0.210 HD
ENDROOT
BRANCH   1   3
HETATM    3  C   UNL     1      13.572   4.507   9.114  1.00  0.00     0.223 C 
BRANCH   3   4
HETATM    4  C   UNL     1      13.653   4.611  10.646  1.00  0.00     0.081 C 
BRANCH   4   5
HETATM    5  C   UNL     1      14.977   5.103  11.119  1.00  0.00    -0.052 A 
HETATM    6  C   UNL     1      15.988   5.383  10.199  1.00  0.00     0.046 A 
HETATM    7  C   UNL     1      17.228   5.844  10.643  1.00  0.00     0.099 A 
HETATM    8  C   UNL     1      17.457   6.025  12.006  1.00  0.00     0.098 A 
HETATM    9  C   UNL     1      16.447   5.744  12.927  1.00  0.00     0.040 A 
HETATM   10  C   UNL     1      15.207   5.284  12.484  1.00  0.00     0.010 A 
BRANCH   7  11
HETATM   11  O   UNL     1      18.206   6.113   9.735  1.00  0.00    -0.358 OA
HETATM   12  H   UNL     1      18.851   5.465   9.535  1.00  0.00     0.217 HD
ENDBRANCH   7  11
BRANCH   8  13
HETATM   13  O   UNL     1      18.663   6.475  12.451  1.00  0.00    -0.358 OA
HETATM   14  H   UNL     1      19.437   5.969  12.301  1.00  0.00     0.217 HD
ENDBRANCH   8  13
ENDBRANCH   4   5
ENDBRANCH   3   4
BRANCH   3  15
HETATM   15  C   UNL     1      13.758   3.077   8.646  1.00  0.00     0.203 C 
HETATM   16  O   UNL     1      12.991   2.205   9.349  1.00  0.00    -0.646 OA
HETATM   17  O   UNL     1      14.519   2.727   7.754  1.00  0.00    -0.646 OA
ENDBRANCH   3  15
ENDBRANCH   1   3
TORSDOF 6
ENDMDL
MODEL 2
REMARK VINA RESULT:      -6.1      3.802      4.771
REMARK  6 active torsions:
REMARK  status: ('A' for Active; 'I' for Inactive)
REMARK    1  A    between atoms: O_1  and  C_8 
REMARK    2  A    between atoms: O_2  and  C_11 
REMARK    3  A    between atoms: O_3  and  C_13 
REMARK    4  A    between atoms: C_6  and  C_7 
REMARK    5  A    between atoms: C_6  and  C_8 
REMARK    6  A    between atoms: C_8  and  C_14 
ROOT
HETATM    1  O   UNL     1      12.162   3.785  10.957  1.00  0.00    -0.385 OA
HETATM    2  H   UNL     1      11.335   4.038  11.394  1.00  0.00     0.210 HD
ENDROOT
BRANCH   1   3
HETATM    3  C   UNL     1      12.860   4.956  10.551  1.00  0.00     0.223 C 
BRANCH   3   4
HETATM    4  C   UNL     1      13.855   5.341  11.659  1.00  0.00     0.081 C 
BRANCH   4   5
HETATM    5  C   UNL     1      13.180   5.847  12.887  1.00  0.00    -0.052 A 
HETATM    6  C   UNL     1      13.517   5.324  14.135  1.00  0.00     0.046 A 
HETATM    7  C   UNL     1      12.884   5.798  15.285  1.00  0.00     0.099 A 
HETATM    8  C   UNL     1      11.914   6.795  15.185  1.00  0.00     0.098 A 
HETATM    9  C   UNL     1      11.576   7.318  13.937  1.00  0.00     0.040 A 
HETATM   10  C   UNL     1      12.209   6.844  12.788  1.00  0.00     0.010 A 
BRANCH   7  11
HETATM   11  O   UNL     1      13.223   5.279  16.497  1.00  0.00    -0.358 OA
HETATM   12  H   UNL     1      13.312   4.353  16.602  1.00  0.00     0.217 HD
ENDBRANCH   7  11
BRANCH   8  13
HETATM   13  O   UNL     1      11.290   7.266  16.301  1.00  0.00    -0.358 OA
HETATM   14  H   UNL     1      11.726   7.236  17.130  1.00  0.00     0.217 HD
ENDBRANCH   8  13
ENDBRANCH   4   5
ENDBRANCH   3   4
BRANCH   3  15
HETATM   15  C   UNL     1      13.575   4.636   9.254  1.00  0.00     0.203 C 
HETATM   16  O   UNL     1      14.924   4.620   9.403  1.00  0.00    -0.646 OA
HETATM   17  O   UNL     1      13.020   4.429   8.182  1.00  0.00    -0.646 OA
ENDBRANCH   3  15
ENDBRANCH   1   3
TORSDOF 6
ENDMDL
MODEL 3
REMARK VINA RESULT:      -6.0      3.934      4.931
REMARK  6 active torsions:
REMARK  status: ('A' for Active; 'I' for Inactive)
REMARK    1  A    between atoms: O_1  and  C_8 
REMARK    2  A    between atoms: O_2  and  C_11 
REMARK    3  A    between atoms: O_3  and  C_13 
REMARK    4  A    between atoms: C_6  and  C_7 
REMARK    5  A    between atoms: C_6  and  C_8 
REMARK    6  A    between atoms: C_8  and  C_14 
ROOT
HETATM    1  O   UNL     1      15.763   5.131  11.061  1.00  0.00    -0.385 OA
HETATM    2  H   UNL     1      16.202   5.769  11.644  1.00  0.00     0.210 HD
ENDROOT
BRANCH   1   3
HETATM    3  C   UNL     1      14.358   5.180  11.277  1.00  0.00     0.223 C 
BRANCH   3   4
HETATM    4  C   UNL     1      13.957   6.638  11.554  1.00  0.00     0.081 C 
BRANCH   4   5
HETATM    5  C   UNL     1      13.230   6.799  12.845  1.00  0.00    -0.052 A 
HETATM    6  C   UNL     1      13.549   5.984  13.932  1.00  0.00     0.046 A 
HETATM    7  C   UNL     1      12.868   6.135  15.140  1.00  0.00     0.099 A 
HETATM    8  C   UNL     1      11.868   7.099  15.261  1.00  0.00     0.098 A 
HETATM    9  C   UNL     1      11.548   7.913  14.175  1.00  0.00     0.040 A 
HETATM   10  C   UNL     1      12.229   7.763  12.967  1.00  0.00     0.010 A 
BRANCH   7  11
HETATM   11  O   UNL     1      13.189   5.334  16.194  1.00  0.00    -0.358 OA
HETATM   12  H   UNL     1      13.974   4.824  16.172  1.00  0.00     0.217 HD
ENDBRANCH   7  11
BRANCH   8  13
HETATM   13  O   UNL     1      11.197   7.256  16.437  1.00  0.00    -0.358 OA
HETATM   14  H   UNL     1      11.364   6.675  17.153  1.00  0.00     0.217 HD
ENDBRANCH   8  13
ENDBRANCH   4   5
ENDBRANCH   3   4
BRANCH   3  15
HETATM   15  C   UNL     1      13.685   4.649  10.027  1.00  0.00     0.203 C 
HETATM   16  O   UNL     1      12.335   4.582  10.162  1.00  0.00    -0.646 OA
HETATM   17  O   UNL     1      14.271   4.300   9.012  1.00  0.00    -0.646 OA
ENDBRANCH   3  15
ENDBRANCH   1   3
TORSDOF 6
ENDMDL
MODEL 4
REMARK VINA RESULT:      -6.0      2.713      4.035
REMARK  6 active torsions:
REMARK  status: ('A' for Active; 'I' for Inactive)
REMARK    1  A    between atoms: O_1  and  C_8 
REMARK    2  A    between atoms: O_2  and  C_11 
REMARK    3  A    between atoms: O_3  and  C_13 
REMARK    4  A    between atoms: C_6  and  C_7 
REMARK    5  A    between atoms: C_6  and  C_8 
REMARK    6  A    between atoms: C_8  and  C_14 
ROOT
HETATM    1  O   UNL     1      11.809   5.567  14.707  1.00  0.00    -0.385 OA
HETATM    2  H   UNL     1      11.232   6.303  14.961  1.00  0.00     0.210 HD
ENDROOT
BRANCH   1   3
HETATM    3  C   UNL     1      12.686   5.989  13.669  1.00  0.00     0.223 C 
BRANCH   3   4
HETATM    4  C   UNL     1      13.350   4.746  13.054  1.00  0.00     0.081 C 
BRANCH   4   5
HETATM    5  C   UNL     1      14.538   5.082  12.220  1.00  0.00    -0.052 A 
HETATM    6  C   UNL     1      15.720   5.505  12.827  1.00  0.00     0.046 A 
HETATM    7  C   UNL     1      16.832   5.820  12.045  1.00  0.00     0.099 A 
HETATM    8  C   UNL     1      16.761   5.712  10.657  1.00  0.00     0.098 A 
HETATM    9  C   UNL     1      15.578   5.289  10.049  1.00  0.00     0.040 A 
HETATM   10  C   UNL     1      14.467   4.974  10.830  1.00  0.00     0.010 A 
BRANCH   7  11
HETATM   11  O   UNL     1      17.980   6.231  12.650  1.00  0.00    -0.358 OA
HETATM   12  H   UNL     1      17.971   6.481  13.552  1.00  0.00     0.217 HD
ENDBRANCH   7  11
BRANCH   8  13
HETATM   13  O   UNL     1      17.841   6.015   9.883  1.00  0.00    -0.358 OA
HETATM   14  H   UNL     1      18.137   6.902   9.818  1.00  0.00     0.217 HD
ENDBRANCH   8  13
ENDBRANCH   4   5
ENDBRANCH   3   4
BRANCH   3  15
HETATM   15  C   UNL     1      11.857   6.736  12.646  1.00  0.00     0.203 C 
HETATM   16  O   UNL     1      11.891   8.080  12.840  1.00  0.00    -0.646 OA
HETATM   17  O   UNL     1      11.209   6.209  11.751  1.00  0.00    -0.646 OA
ENDBRANCH   3  15
ENDBRANCH   1   3
TORSDOF 6
ENDMDL
MODEL 5
REMARK VINA RESULT:      -5.9      3.176      4.639
REMARK  6 active torsions:
REMARK  status: ('A' for Active; 'I' for Inactive)
REMARK    1  A    between atoms: O_1  and  C_8 
REMARK    2  A    between atoms: O_2  and  C_11 
REMARK    3  A    between atoms: O_3  and  C_13 
REMARK    4  A    between atoms: C_6  and  C_7 
REMARK    5  A    between atoms: C_6  and  C_8 
REMARK    6  A    between atoms: C_8  and  C_14 
ROOT
HETATM    1  O   UNL     1      11.413   6.199  15.138  1.00  0.00    -0.385 OA
HETATM    2  H   UNL     1      10.773   6.832  14.778  1.00  0.00     0.210 HD
ENDROOT
BRANCH   1   3
HETATM    3  C   UNL     1      12.628   6.283  14.403  1.00  0.00     0.223 C 
BRANCH   3   4
HETATM    4  C   UNL     1      12.818   4.972  13.622  1.00  0.00     0.081 C 
BRANCH   4   5
HETATM    5  C   UNL     1      13.851   5.085  12.553  1.00  0.00    -0.052 A 
HETATM    6  C   UNL     1      13.495   4.904  11.217  1.00  0.00     0.046 A 
HETATM    7  C   UNL     1      14.463   5.009  10.217  1.00  0.00     0.099 A 
HETATM    8  C   UNL     1      15.785   5.294  10.554  1.00  0.00     0.098 A 
HETATM    9  C   UNL     1      16.142   5.474  11.891  1.00  0.00     0.040 A 
HETATM   10  C   UNL     1      15.174   5.369  12.890  1.00  0.00     0.010 A 
BRANCH   7  11
HETATM   11  O   UNL     1      14.103   4.831   8.916  1.00  0.00    -0.358 OA
HETATM   12  H   UNL     1      13.356   5.279   8.571  1.00  0.00     0.217 HD
ENDBRANCH   7  11
BRANCH   8  13
HETATM   13  O   UNL     1      16.739   5.400   9.586  1.00  0.00    -0.358 OA
HETATM   14  H   UNL     1      17.428   4.767   9.536  1.00  0.00     0.217 HD
ENDBRANCH   8  13
ENDBRANCH   4   5
ENDBRANCH   3   4
BRANCH   3  15
HETATM   15  C   UNL     1      12.516   7.472  13.471  1.00  0.00     0.203 C 
HETATM   16  O   UNL     1      13.482   8.397  13.703  1.00  0.00    -0.646 OA
HETATM   17  O   UNL     1      11.654   7.609  12.614  1.00  0.00    -0.646 OA
ENDBRANCH   3  15
ENDBRANCH   1   3
TORSDOF 6
ENDMDL
MODEL 6
REMARK VINA RESULT:      -5.9      3.173      4.282
REMARK  6 active torsions:
REMARK  status: ('A' for Active; 'I' for Inactive)
REMARK    1  A    between atoms: O_1  and  C_8 
REMARK    2  A    between atoms: O_2  and  C_11 
REMARK    3  A    between atoms: O_3  and  C_13 
REMARK    4  A    between atoms: C_6  and  C_7 
REMARK    5  A    between atoms: C_6  and  C_8 
REMARK    6  A    between atoms: C_8  and  C_14 
ROOT
HETATM    1  O   UNL     1      15.742   5.295   9.562  1.00  0.00    -0.385 OA
HETATM    2  H   UNL     1      16.505   5.511  10.121  1.00  0.00     0.210 HD
ENDROOT
BRANCH   1   3
HETATM    3  C   UNL     1      14.646   4.912  10.384  1.00  0.00     0.223 C 
BRANCH   3   4
HETATM    4  C   UNL     1      14.187   6.139  11.189  1.00  0.00     0.081 C 
BRANCH   4   5
HETATM    5  C   UNL     1      13.983   5.836  12.634  1.00  0.00    -0.052 A 
HETATM    6  C   UNL     1      12.743   6.071  13.228  1.00  0.00     0.046 A 
HETATM    7  C   UNL     1      12.553   5.787  14.581  1.00  0.00     0.099 A 
HETATM    8  C   UNL     1      13.602   5.268  15.339  1.00  0.00     0.098 A 
HETATM    9  C   UNL     1      14.842   5.034  14.745  1.00  0.00     0.040 A 
HETATM   10  C   UNL     1      15.033   5.318  13.393  1.00  0.00     0.010 A 
BRANCH   7  11
HETATM   11  O   UNL     1      11.337   6.020  15.149  1.00  0.00    -0.358 OA
HETATM   12  H   UNL     1      10.561   5.680  14.750  1.00  0.00     0.217 HD
ENDBRANCH   7  11
BRANCH   8  13
HETATM   13  O   UNL     1      13.427   4.986  16.660  1.00  0.00    -0.358 OA
HETATM   14  H   UNL     1      13.705   4.159  17.004  1.00  0.00     0.217 HD
ENDBRANCH   8  13
ENDBRANCH   4   5
ENDBRANCH   3   4
BRANCH   3  15
HETATM   15  C   UNL     1      13.547   4.407   9.473  1.00  0.00     0.203 C 
HETATM   16  O   UNL     1      14.040   3.837   8.343  1.00  0.00    -0.646 OA
HETATM   17  O   UNL     1      12.349   4.506   9.701  1.00  0.00    -0.646 OA
ENDBRANCH   3  15
ENDBRANCH   1   3
TORSDOF 6
ENDMDL
MODEL 7
REMARK VINA RESULT:      -5.9      2.962      4.001
REMARK  6 active torsions:
REMARK  status: ('A' for Active; 'I' for Inactive)
REMARK    1  A    between atoms: O_1  and  C_8 
REMARK    2  A    between atoms: O_2  and  C_11 
REMARK    3  A    between atoms: O_3  and  C_13 
REMARK    4  A    between atoms: C_6  and  C_7 
REMARK    5  A    between atoms: C_6  and  C_8 
REMARK    6  A    between atoms: C_8  and  C_14 
ROOT
HETATM    1  O   UNL     1      12.463   2.992  10.411  1.00  0.00    -0.385 OA
HETATM    2  H   UNL     1      11.563   2.793  10.108  1.00  0.00     0.210 HD
ENDROOT
BRANCH   1   3
HETATM    3  C   UNL     1      12.842   4.284   9.953  1.00  0.00     0.223 C 
BRANCH   3   4
HETATM    4  C   UNL     1      14.075   4.742  10.750  1.00  0.00     0.081 C 
BRANCH   4   5
HETATM    5  C   UNL     1      13.747   5.773  11.775  1.00  0.00    -0.052 A 
HETATM    6  C   UNL     1      12.490   5.782  12.378  1.00  0.00     0.046 A 
HETATM    7  C   UNL     1      12.182   6.748  13.337  1.00  0.00     0.099 A 
HETATM    8  C   UNL     1      13.133   7.704  13.692  1.00  0.00     0.098 A 
HETATM    9  C   UNL     1      14.390   7.697  13.088  1.00  0.00     0.040 A 
HETATM   10  C   UNL     1      14.697   6.731  12.130  1.00  0.00     0.010 A 
BRANCH   7  11
HETATM   11  O   UNL     1      10.952   6.745  13.920  1.00  0.00    -0.358 OA
HETATM   12  H   UNL     1      10.865   6.936  14.833  1.00  0.00     0.217 HD
ENDBRANCH   7  11
BRANCH   8  13
HETATM   13  O   UNL     1      12.845   8.652  14.628  1.00  0.00    -0.358 OA
HETATM   14  H   UNL     1      12.900   9.561  14.408  1.00  0.00     0.217 HD
ENDBRANCH   8  13
ENDBRANCH   4   5
ENDBRANCH   3   4
BRANCH   3  15
HETATM   15  C   UNL     1      13.150   4.173   8.474  1.00  0.00     0.203 C 
HETATM   16  O   UNL     1      12.625   5.203   7.763  1.00  0.00    -0.646 OA
HETATM   17  O   UNL     1      13.782   3.260   7.958  1.00  0.00    -0.646 OA
ENDBRANCH   3  15
ENDBRANCH   1   3
TORSDOF 6
ENDMDL
MODEL 8
REMARK VINA RESULT:      -5.8      2.428      3.245
REMARK  6 active torsions:
REMARK  status: ('A' for Active; 'I' for Inactive)
REMARK    1  A    between atoms: O_1  and  C_8 
REMARK    2  A    between atoms: O_2  and  C_11 
REMARK    3  A    between atoms: O_3  and  C_13 
REMARK    4  A    between atoms: C_6  and  C_7 
REMARK    5  A    between atoms: C_6  and  C_8 
REMARK    6  A    between atoms: C_8  and  C_14 
ROOT
HETATM    1  O   UNL     1      12.303   4.338  13.357  1.00  0.00    -0.385 OA
HETATM    2  H   UNL     1      12.423   4.303  14.319  1.00  0.00     0.210 HD
ENDROOT
BRANCH   1   3
HETATM    3  C   UNL     1      13.031   5.440  12.829  1.00  0.00     0.223 C 
BRANCH   3   4
HETATM    4  C   UNL     1      13.888   4.942  11.653  1.00  0.00     0.081 C 
BRANCH   4   5
HETATM    5  C   UNL     1      15.320   5.335  11.778  1.00  0.00    -0.052 A 
HETATM    6  C   UNL     1      16.099   5.506  10.634  1.00  0.00     0.046 A 
HETATM    7  C   UNL     1      17.440   5.874  10.751  1.00  0.00     0.099 A 
HETATM    8  C   UNL     1      18.001   6.070  12.013  1.00  0.00     0.098 A 
HETATM    9  C   UNL     1      17.222   5.898  13.157  1.00  0.00     0.040 A 
HETATM   10  C   UNL     1      15.882   5.530  13.040  1.00  0.00     0.010 A 
BRANCH   7  11
HETATM   11  O   UNL     1      18.189   6.039   9.627  1.00  0.00    -0.358 OA
HETATM   12  H   UNL     1      17.861   5.751   8.799  1.00  0.00     0.217 HD
ENDBRANCH   7  11
BRANCH   8  13
HETATM   13  O   UNL     1      19.309   6.430  12.140  1.00  0.00    -0.358 OA
HETATM   14  H   UNL     1      19.585   6.942  12.874  1.00  0.00     0.217 HD
ENDBRANCH   8  13
ENDBRANCH   4   5
ENDBRANCH   3   4
BRANCH   3  15
HETATM   15  C   UNL     1      12.024   6.479  12.378  1.00  0.00     0.203 C 
HETATM   16  O   UNL     1      11.099   5.961  11.530  1.00  0.00    -0.646 OA
HETATM   17  O   UNL     1      12.036   7.656  12.713  1.00  0.00    -0.646 OA
ENDBRANCH   3  15
ENDBRANCH   1   3
TORSDOF 6
ENDMDL
MODEL 9
REMARK VINA RESULT:      -5.8      1.505      5.368
REMARK  6 active torsions:
REMARK  status: ('A' for Active; 'I' for Inactive)
REMARK    1  A    between atoms: O_1  and  C_8 
REMARK    2  A    between atoms: O_2  and  C_11 
REMARK    3  A    between atoms: O_3  and  C_13 
REMARK    4  A    between atoms: C_6  and  C_7 
REMARK    5  A    between atoms: C_6  and  C_8 
REMARK    6  A    between atoms: C_8  and  C_14 
ROOT
HETATM    1  O   UNL     1      17.474   7.313  12.683  1.00  0.00    -0.385 OA
HETATM    2  H   UNL     1      18.308   7.777  12.511  1.00  0.00     0.210 HD
ENDROOT
BRANCH   1   3
HETATM    3  C   UNL     1      17.604   5.949  12.301  1.00  0.00     0.223 C 
BRANCH   3   4
HETATM    4  C   UNL     1      16.864   5.742  10.969  1.00  0.00     0.081 C 
BRANCH   4   5
HETATM    5  C   UNL     1      15.442   5.338  11.157  1.00  0.00    -0.052 A 
HETATM    6  C   UNL     1      14.632   5.096  10.048  1.00  0.00     0.046 A 
HETATM    7  C   UNL     1      13.301   4.718  10.225  1.00  0.00     0.099 A 
HETATM    8  C   UNL     1      12.780   4.581  11.511  1.00  0.00     0.098 A 
HETATM    9  C   UNL     1      13.590   4.824  12.621  1.00  0.00     0.040 A 
HETATM   10  C   UNL     1      14.920   5.202  12.444  1.00  0.00     0.010 A 
BRANCH   7  11
HETATM   11  O   UNL     1      12.521   4.484   9.133  1.00  0.00    -0.358 OA
HETATM   12  H   UNL     1      12.131   3.642   9.009  1.00  0.00     0.217 HD
ENDBRANCH   7  11
BRANCH   8  13
HETATM   13  O   UNL     1      11.482   4.211  11.696  1.00  0.00    -0.358 OA
HETATM   14  H   UNL     1      10.849   4.844  11.975  1.00  0.00     0.217 HD
ENDBRANCH   8  13
ENDBRANCH   4   5
ENDBRANCH   3   4
BRANCH   3  15
HETATM   15  C   UNL     1      19.083   5.651  12.164  1.00  0.00     0.203 C 
HETATM   16  O   UNL     1      19.633   6.272  11.090  1.00  0.00    -0.646 OA
HETATM   17  O   UNL     1      19.722   4.923  12.913  1.00  0.00    -0.646 OA
ENDBRANCH   3  15
ENDBRANCH   1   3
TORSDOF 6
ENDMDL
