MODEL 1
REMARK VINA RESULT:      -6.1      0.000      0.000
REMARK  6 active torsions:
REMARK  status: ('A' for Active; 'I' for Inactive)
REMARK    1  A    between atoms: O_1  and  C_8 
REMARK    2  A    between atoms: O_2  and  C_11 
REMARK    3  A    between atoms: O_3  and  C_13 
REMARK    4  A    between atoms: C_6  and  C_7 
REMARK    5  A    between atoms: C_6  and  C_8 
REMARK    6  A    between atoms: C_8  and  C_14 
ROOT
HETATM    1  O   UNL     1      10.010   7.665   6.397  1.00  0.00    -0.385 OA
HETATM    2  H   UNL     1      10.274   8.598   6.424  1.00  0.00     0.210 HD
ENDROOT
BRANCH   1   3
HETATM    3  C   UNL     1      11.155   6.842   6.588  1.00  0.00     0.223 C 
BRANCH   3   4
HETATM    4  C   UNL     1      11.447   6.755   8.095  1.00  0.00     0.081 C 
BRANCH   4   5
HETATM    5  C   UNL     1      12.900   6.867   8.406  1.00  0.00    -0.052 A 
HETATM    6  C   UNL     1      13.814   7.131   7.386  1.00  0.00     0.046 A 
HETATM    7  C   UNL     1      15.174   7.235   7.678  1.00  0.00     0.099 A 
HETATM    8  C   UNL     1      15.620   7.075   8.989  1.00  0.00     0.098 A 
HETATM    9  C   UNL     1      14.706   6.809  10.010  1.00  0.00     0.040 A 
HETATM   10  C   UNL     1      13.347   6.705   9.718  1.00  0.00     0.010 A 
BRANCH   7  11
HETATM   11  O   UNL     1      16.056   7.494   6.674  1.00  0.00    -0.358 OA
HETATM   12  H   UNL     1      16.610   6.812   6.349  1.00  0.00     0.217 HD
ENDBRANCH   7  11
BRANCH   8  13
HETATM   13  O   UNL     1      16.946   7.175   9.286  1.00  0.00    -0.358 OA
HETATM   14  H   UNL     1      17.587   6.855   8.683  1.00  0.00     0.217 HD
ENDBRANCH   8  13
ENDBRANCH   4   5
ENDBRANCH   3   4
BRANCH   3  15
HETATM   15  C   UNL     1      10.840   5.479   6.006  1.00  0.00     0.203 C 
HETATM   16  O   UNL     1      11.354   5.324   4.759  1.00  0.00    -0.646 OA
HETATM   17  O   UNL     1      10.186   4.612   6.569  1.00  0.00    -0.646 OA
ENDBRANCH   3  15
ENDBRANCH   1   3
TORSDOF 6
ENDMDL
MODEL 2
REMARK VINA RESULT:      -6.1      3.749      4.692
REMARK  6 active torsions:
REMARK  status: ('A' for Active; 'I' for Inactive)
REMARK    1  A    between atoms: O_1  and  C_8 
REMARK    2  A    between atoms: O_2  and  C_11 
REMARK    3  A    between atoms: O_3  and  C_13 
REMARK    4  A    between atoms: C_6  and  C_7 
REMARK    5  A    between atoms: C_6  and  C_8 
REMARK    6  A    between atoms: C_8  and  C_14 
ROOT
HETATM    1  O   UNL     1      10.087   5.820   8.509  1.00  0.00    -0.385 OA
HETATM    2  H   UNL     1       9.297   5.761   7.950  1.00  0.00     0.210 HD
ENDROOT
BRANCH   1   3
HETATM    3  C   UNL     1      10.845   6.965   8.139  1.00  0.00     0.223 C 
BRANCH   3   4
HETATM    4  C   UNL     1      12.048   7.083   9.090  1.00  0.00     0.081 C 
BRANCH   4   5
HETATM    5  C   UNL     1      11.648   7.448  10.479  1.00  0.00    -0.052 A 
HETATM    6  C   UNL     1      11.995   6.619  11.546  1.00  0.00     0.046 A 
HETATM    7  C   UNL     1      11.620   6.961  12.846  1.00  0.00     0.099 A 
HETATM    8  C   UNL     1      10.899   8.132  13.078  1.00  0.00     0.098 A 
HETATM    9  C   UNL     1      10.552   8.961  12.011  1.00  0.00     0.040 A 
HETATM   10  C   UNL     1      10.926   8.619  10.712  1.00  0.00     0.010 A 
BRANCH   7  11
HETATM   11  O   UNL     1      11.965   6.144  13.878  1.00  0.00    -0.358 OA
HETATM   12  H   UNL     1      12.376   5.320  13.707  1.00  0.00     0.217 HD
ENDBRANCH   7  11
BRANCH   8  13
HETATM   13  O   UNL     1      10.529   8.477  14.343  1.00  0.00    -0.358 OA
HETATM   14  H   UNL     1      10.854   7.991  15.075  1.00  0.00     0.217 HD
ENDBRANCH   8  13
ENDBRANCH   4   5
ENDBRANCH   3   4
BRANCH   3  15
HETATM   15  C   UNL     1      11.293   6.772   6.704  1.00  0.00     0.203 C 
HETATM   16  O   UNL     1      12.645   6.757   6.588  1.00  0.00    -0.646 OA
HETATM   17  O   UNL     1      10.540   6.660   5.746  1.00  0.00    -0.646 OA
ENDBRANCH   3  15
ENDBRANCH   1   3
TORSDOF 6
ENDMDL
MODEL 3
REMARK VINA RESULT:      -6.0      3.815      4.811
REMARK  6 active torsions:
REMARK  status: ('A' for Active; 'I' for Inactive)
REMARK    1  A    between atoms: O_1  and  C_8 
REMARK    2  A    between atoms: O_2  and  C_11 
REMARK    3  A    between atoms: O_3  and  C_13 
REMARK    4  A    between atoms: C_6  and  C_7 
REMARK    5  A    between atoms: C_6  and  C_8 
REMARK    6  A    between atoms: C_8  and  C_14 
ROOT
HETATM    1  O   UNL     1      13.696   6.843   7.770  1.00  0.00    -0.385 OA
HETATM    2  H   UNL     1      14.445   6.970   8.373  1.00  0.00     0.210 HD
ENDROOT
BRANCH   1   3
HETATM    3  C   UNL     1      12.478   6.965   8.494  1.00  0.00     0.223 C 
BRANCH   3   4
HETATM    4  C   UNL     1      12.421   8.367   9.122  1.00  0.00     0.081 C 
BRANCH   4   5
HETATM    5  C   UNL     1      11.881   8.354  10.511  1.00  0.00    -0.052 A 
HETATM    6  C   UNL     1      12.064   7.232  11.320  1.00  0.00     0.046 A 
HETATM    7  C   UNL     1      11.557   7.219  12.620  1.00  0.00     0.099 A 
HETATM    8  C   UNL     1      10.868   8.328  13.110  1.00  0.00     0.098 A 
HETATM    9  C   UNL     1      10.684   9.449  12.301  1.00  0.00     0.040 A 
HETATM   10  C   UNL     1      11.191   9.462  11.002  1.00  0.00     0.010 A 
BRANCH   7  11
HETATM   11  O   UNL     1      11.743   6.119  13.400  1.00  0.00    -0.358 OA
HETATM   12  H   UNL     1      11.027   5.542  13.574  1.00  0.00     0.217 HD
ENDBRANCH   7  11
BRANCH   8  13
HETATM   13  O   UNL     1      10.370   8.327  14.379  1.00  0.00    -0.358 OA
HETATM   14  H   UNL     1       9.444   8.287  14.519  1.00  0.00     0.217 HD
ENDBRANCH   8  13
ENDBRANCH   4   5
ENDBRANCH   3   4
BRANCH   3  15
HETATM   15  C   UNL     1      11.341   6.752   7.515  1.00  0.00     0.203 C 
HETATM   16  O   UNL     1      11.788   6.432   6.273  1.00  0.00    -0.646 OA
HETATM   17  O   UNL     1      10.154   6.868   7.786  1.00  0.00    -0.646 OA
ENDBRANCH   3  15
ENDBRANCH   1   3
TORSDOF 6
ENDMDL
MODEL 4
REMARK VINA RESULT:      -6.0      2.836      4.139
REMARK  6 active torsions:
REMARK  status: ('A' for Active; 'I' for Inactive)
REMARK    1  A    between atoms: O_1  and  C_8 
REMARK    2  A    between atoms: O_2  and  C_11 
REMARK    3  A    between atoms: O_3  and  C_13 
REMARK    4  A    between atoms: C_6  and  C_7 
REMARK    5  A    between atoms: C_6  and  C_8 
REMARK    6  A    between atoms: C_8  and  C_14 
ROOT
HETATM    1  O   UNL     1      10.404   7.180  12.662  1.00  0.00    -0.385 OA
HETATM    2  H   UNL     1      10.607   6.253  12.859  1.00  0.00     0.210 HD
ENDROOT
BRANCH   1   3
HETATM    3  C   UNL     1      11.204   7.619  11.571  1.00  0.00     0.223 C 
BRANCH   3   4
HETATM    4  C   UNL     1      11.382   6.446  10.593  1.00  0.00     0.081 C 
BRANCH   4   5
HETATM    5  C   UNL     1      12.471   6.683   9.604  1.00  0.00    -0.052 A 
HETATM    6  C   UNL     1      13.801   6.712  10.024  1.00  0.00     0.046 A 
HETATM    7  C   UNL     1      14.821   6.934   9.097  1.00  0.00     0.099 A 
HETATM    8  C   UNL     1      14.510   7.127   7.752  1.00  0.00     0.098 A 
HETATM    9  C   UNL     1      13.180   7.100   7.332  1.00  0.00     0.040 A 
HETATM   10  C   UNL     1      12.161   6.878   8.258  1.00  0.00     0.010 A 
BRANCH   7  11
HETATM   11  O   UNL     1      16.115   6.958   9.519  1.00  0.00    -0.358 OA
HETATM   12  H   UNL     1      16.613   7.749   9.457  1.00  0.00     0.217 HD
ENDBRANCH   7  11
BRANCH   8  13
HETATM   13  O   UNL     1      15.497   7.344   6.838  1.00  0.00    -0.358 OA
HETATM   14  H   UNL     1      15.526   6.837   6.050  1.00  0.00     0.217 HD
ENDBRANCH   8  13
ENDBRANCH   4   5
ENDBRANCH   3   4
BRANCH   3  15
HETATM   15  C   UNL     1      10.486   8.782  10.917  1.00  0.00     0.203 C 
HETATM   16  O   UNL     1       9.582   8.369   9.992  1.00  0.00    -0.646 OA
HETATM   17  O   UNL     1      10.695   9.962  11.164  1.00  0.00    -0.646 OA
ENDBRANCH   3  15
ENDBRANCH   1   3
TORSDOF 6
ENDMDL
MODEL 5
REMARK VINA RESULT:      -6.0      3.130      4.429
REMARK  6 active torsions:
REMARK  status: ('A' for Active; 'I' for Inactive)
REMARK    1  A    between atoms: O_1  and  C_8 
REMARK    2  A    between atoms: O_2  and  C_11 
REMARK    3  A    between atoms: O_3  and  C_13 
REMARK    4  A    between atoms: C_6  and  C_7 
REMARK    5  A    between atoms: C_6  and  C_8 
REMARK    6  A    between atoms: C_8  and  C_14 
ROOT
HETATM    1  O   UNL     1      10.268   7.352  13.042  1.00  0.00    -0.385 OA
HETATM    2  H   UNL     1       9.367   7.614  12.797  1.00  0.00     0.210 HD
ENDROOT
BRANCH   1   3
HETATM    3  C   UNL     1      11.153   7.637  11.966  1.00  0.00     0.223 C 
BRANCH   3   4
HETATM    4  C   UNL     1      11.250   6.390  11.071  1.00  0.00     0.081 C 
BRANCH   4   5
HETATM    5  C   UNL     1      12.147   6.593   9.898  1.00  0.00    -0.052 A 
HETATM    6  C   UNL     1      11.619   6.601   8.607  1.00  0.00     0.046 A 
HETATM    7  C   UNL     1      12.459   6.790   7.510  1.00  0.00     0.099 A 
HETATM    8  C   UNL     1      13.828   6.970   7.704  1.00  0.00     0.098 A 
HETATM    9  C   UNL     1      14.358   6.961   8.995  1.00  0.00     0.040 A 
HETATM   10  C   UNL     1      13.517   6.773  10.091  1.00  0.00     0.010 A 
BRANCH   7  11
HETATM   11  O   UNL     1      11.931   6.797   6.255  1.00  0.00    -0.358 OA
HETATM   12  H   UNL     1      11.799   7.608   5.807  1.00  0.00     0.217 HD
ENDBRANCH   7  11
BRANCH   8  13
HETATM   13  O   UNL     1      14.659   7.157   6.640  1.00  0.00    -0.358 OA
HETATM   14  H   UNL     1      14.744   8.008   6.255  1.00  0.00     0.217 HD
ENDBRANCH   8  13
ENDBRANCH   4   5
ENDBRANCH   3   4
BRANCH   3  15
HETATM   15  C   UNL     1      10.585   8.819  11.207  1.00  0.00     0.203 C 
HETATM   16  O   UNL     1      11.149   9.993  11.592  1.00  0.00    -0.646 OA
HETATM   17  O   UNL     1       9.708   8.748  10.357  1.00  0.00    -0.646 OA
ENDBRANCH   3  15
ENDBRANCH   1   3
TORSDOF 6
ENDMDL
MODEL 6
REMARK VINA RESULT:      -5.9      2.894      3.905
REMARK  6 active torsions:
REMARK  status: ('A' for Active; 'I' for Inactive)
REMARK    1  A    between atoms: O_1  and  C_8 
REMARK    2  A    between atoms: O_2  and  C_11 
REMARK    3  A    between atoms: O_3  and  C_13 
REMARK    4  A    between atoms: C_6  and  C_7 
REMARK    5  A    between atoms: C_6  and  C_8 
REMARK    6  A    between atoms: C_8  and  C_14 
ROOT
HETATM    1  O   UNL     1      10.336   7.247  12.751  1.00  0.00    -0.385 OA
HETATM    2  H   UNL     1       9.449   7.081  12.396  1.00  0.00     0.210 HD
ENDROOT
BRANCH   1   3
HETATM    3  C   UNL     1      11.197   7.667  11.699  1.00  0.00     0.223 C 
BRANCH   3   4
HETATM    4  C   UNL     1      11.611   6.431  10.884  1.00  0.00     0.081 C 
BRANCH   4   5
HETATM    5  C   UNL     1      12.890   6.632  10.145  1.00  0.00    -0.052 A 
HETATM    6  C   UNL     1      12.878   6.787   8.759  1.00  0.00     0.046 A 
HETATM    7  C   UNL     1      14.075   6.974   8.067  1.00  0.00     0.099 A 
HETATM    8  C   UNL     1      15.283   7.006   8.762  1.00  0.00     0.098 A 
HETATM    9  C   UNL     1      15.296   6.849  10.148  1.00  0.00     0.040 A 
HETATM   10  C   UNL     1      14.099   6.662  10.839  1.00  0.00     0.010 A 
BRANCH   7  11
HETATM   11  O   UNL     1      14.050   7.126   6.714  1.00  0.00    -0.358 OA
HETATM   12  H   UNL     1      13.243   7.322   6.280  1.00  0.00     0.217 HD
ENDBRANCH   7  11
BRANCH   8  13
HETATM   13  O   UNL     1      16.459   7.189   8.097  1.00  0.00    -0.358 OA
HETATM   14  H   UNL     1      16.838   8.044   8.043  1.00  0.00     0.217 HD
ENDBRANCH   8  13
ENDBRANCH   4   5
ENDBRANCH   3   4
BRANCH   3  15
HETATM   15  C   UNL     1      10.429   8.658  10.849  1.00  0.00     0.203 C 
HETATM   16  O   UNL     1      10.720   9.944  11.172  1.00  0.00    -0.646 OA
HETATM   17  O   UNL     1       9.623   8.356   9.979  1.00  0.00    -0.646 OA
ENDBRANCH   3  15
ENDBRANCH   1   3
TORSDOF 6
ENDMDL
MODEL 7
REMARK VINA RESULT:      -5.9      3.118      4.192
REMARK  6 active torsions:
REMARK  status: ('A' for Active; 'I' for Inactive)
REMARK    1  A    between atoms: O_1  and  C_8 
REMARK    2  A    between atoms: O_2  and  C_11 
REMARK    3  A    between atoms: O_3  and  C_13 
REMARK    4  A    between atoms: C_6  and  C_7 
REMARK    5  A    between atoms: C_6  and  C_8 
REMARK    6  A    between atoms: C_8  and  C_14 
ROOT
HETATM    1  O   UNL     1      13.527   6.869   6.596  1.00  0.00    -0.385 OA
HETATM    2  H   UNL     1      13.999   6.024   6.537  1.00  0.00     0.210 HD
ENDROOT
BRANCH   1   3
HETATM    3  C   UNL     1      12.416   6.732   7.473  1.00  0.00     0.223 C 
BRANCH   3   4
HETATM    4  C   UNL     1      12.385   7.946   8.416  1.00  0.00     0.081 C 
BRANCH   4   5
HETATM    5  C   UNL     1      12.229   7.559   9.847  1.00  0.00    -0.052 A 
HETATM    6  C   UNL     1      11.228   8.144  10.623  1.00  0.00     0.046 A 
HETATM    7  C   UNL     1      11.082   7.781  11.962  1.00  0.00     0.099 A 
HETATM    8  C   UNL     1      11.937   6.834  12.525  1.00  0.00     0.098 A 
HETATM    9  C   UNL     1      12.939   6.250  11.749  1.00  0.00     0.040 A 
HETATM   10  C   UNL     1      13.084   6.612  10.410  1.00  0.00     0.010 A 
BRANCH   7  11
HETATM   11  O   UNL     1      10.101   8.359  12.709  1.00  0.00    -0.358 OA
HETATM   12  H   UNL     1       9.437   8.872  12.293  1.00  0.00     0.217 HD
ENDBRANCH   7  11
BRANCH   8  13
HETATM   13  O   UNL     1      11.804   6.471  13.831  1.00  0.00    -0.358 OA
HETATM   14  H   UNL     1      12.320   5.770  14.179  1.00  0.00     0.217 HD
ENDBRANCH   8  13
ENDBRANCH   4   5
ENDBRANCH   3   4
BRANCH   3  15
HETATM   15  C   UNL     1      11.166   6.664   6.619  1.00  0.00     0.203 C 
HETATM   16  O   UNL     1      10.039   6.884   7.344  1.00  0.00    -0.646 OA
HETATM   17  O   UNL     1      11.151   6.422   5.420  1.00  0.00    -0.646 OA
ENDBRANCH   3  15
ENDBRANCH   1   3
TORSDOF 6
ENDMDL
MODEL 8
REMARK VINA RESULT:      -5.8      2.267      5.190
REMARK  6 active torsions:
REMARK  status: ('A' for Active; 'I' for Inactive)
REMARK    1  A    between atoms: O_1  and  C_8 
REMARK    2  A    between atoms: O_2  and  C_11 
REMARK    3  A    between atoms: O_3  and  C_13 
REMARK    4  A    between atoms: C_6  and  C_7 
REMARK    5  A    between atoms: C_6  and  C_8 
REMARK    6  A    between atoms: C_8  and  C_14 
ROOT
HETATM    1  O   UNL     1      16.003   8.050   6.739  1.00  0.00    -0.385 OA
HETATM    2  H   UNL     1      16.479   7.272   6.407  1.00  0.00     0.210 HD
ENDROOT
BRANCH   1   3
HETATM    3  C   UNL     1      15.396   7.736   7.986  1.00  0.00     0.223 C 
BRANCH   3   4
HETATM    4  C   UNL     1      14.066   7.014   7.714  1.00  0.00     0.081 C 
BRANCH   4   5
HETATM    5  C   UNL     1      12.981   7.437   8.644  1.00  0.00    -0.052 A 
HETATM    6  C   UNL     1      11.723   6.840   8.566  1.00  0.00     0.046 A 
HETATM    7  C   UNL     1      10.707   7.237   9.437  1.00  0.00     0.099 A 
HETATM    8  C   UNL     1      10.950   8.231  10.384  1.00  0.00     0.098 A 
HETATM    9  C   UNL     1      12.208   8.829  10.461  1.00  0.00     0.040 A 
HETATM   10  C   UNL     1      13.223   8.432   9.592  1.00  0.00     0.010 A 
BRANCH   7  11
HETATM   11  O   UNL     1       9.483   6.646   9.351  1.00  0.00    -0.358 OA
HETATM   12  H   UNL     1       9.398   5.724   9.487  1.00  0.00     0.217 HD
ENDBRANCH   7  11
BRANCH   8  13
HETATM   13  O   UNL     1       9.966   8.626  11.240  1.00  0.00    -0.358 OA
HETATM   14  H   UNL     1      10.155   8.737  12.152  1.00  0.00     0.217 HD
ENDBRANCH   8  13
ENDBRANCH   4   5
ENDBRANCH   3   4
BRANCH   3  15
HETATM   15  C   UNL     1      16.358   6.852   8.753  1.00  0.00     0.203 C 
HETATM   16  O   UNL     1      17.414   6.465   7.994  1.00  0.00    -0.646 OA
HETATM   17  O   UNL     1      16.209   6.501   9.916  1.00  0.00    -0.646 OA
ENDBRANCH   3  15
ENDBRANCH   1   3
TORSDOF 6
ENDMDL
MODEL 9
REMARK VINA RESULT:      -5.7      3.716      4.540
REMARK  6 active torsions:
REMARK  status: ('A' for Active; 'I' for Inactive)
REMARK    1  A    between atoms: O_1  and  C_8 
REMARK    2  A    between atoms: O_2  and  C_11 
REMARK    3  A    between atoms: O_3  and  C_13 
REMARK    4  A    between atoms: C_6  and  C_7 
REMARK    5  A    between atoms: C_6  and  C_8 
REMARK    6  A    between atoms: C_8  and  C_14 
ROOT
HETATM    1  O   UNL     1       9.743   6.383   8.522  1.00  0.00    -0.385 OA
HETATM    2  H   UNL     1       9.199   6.952   9.089  1.00  0.00     0.210 HD
ENDROOT
BRANCH   1   3
HETATM    3  C   UNL     1      10.897   7.099   8.100  1.00  0.00     0.223 C 
BRANCH   3   4
HETATM    4  C   UNL     1      12.017   6.870   9.128  1.00  0.00     0.081 C 
BRANCH   4   5
HETATM    5  C   UNL     1      11.636   7.308  10.501  1.00  0.00    -0.052 A 
HETATM    6  C   UNL     1      11.417   8.660  10.767  1.00  0.00     0.046 A 
HETATM    7  C   UNL     1      11.061   9.070  12.052  1.00  0.00     0.099 A 
HETATM    8  C   UNL     1      10.924   8.128  13.071  1.00  0.00     0.098 A 
HETATM    9  C   UNL     1      11.143   6.776  12.805  1.00  0.00     0.040 A 
HETATM   10  C   UNL     1      11.499   6.366  11.521  1.00  0.00     0.010 A 
BRANCH   7  11
HETATM   11  O   UNL     1      10.849  10.392  12.299  1.00  0.00    -0.358 OA
HETATM   12  H   UNL     1      10.333  10.654  13.034  1.00  0.00     0.217 HD
ENDBRANCH   7  11
BRANCH   8  13
HETATM   13  O   UNL     1      10.575   8.516  14.330  1.00  0.00    -0.358 OA
HETATM   14  H   UNL     1      10.669   7.920  15.047  1.00  0.00     0.217 HD
ENDBRANCH   8  13
ENDBRANCH   4   5
ENDBRANCH   3   4
BRANCH   3  15
HETATM   15  C   UNL     1      11.286   6.575   6.733  1.00  0.00     0.203 C 
HETATM   16  O   UNL     1      12.626   6.636   6.523  1.00  0.00    -0.646 OA
HETATM   17  O   UNL     1      10.498   6.156   5.895  1.00  0.00    -0.646 OA
ENDBRANCH   3  15
ENDBRANCH   1   3
TORSDOF 6
ENDMDL
