MODEL 1
REMARK VINA RESULT:      -6.1      0.000      0.000
REMARK  6 active torsions:
REMARK  status: ('A' for Active; 'I' for Inactive)
REMARK    1  A    between atoms: O_1  and  C_8 
REMARK    2  A    between atoms: O_2  and  C_11 
REMARK    3  A    between atoms: O_3  and  C_13 
REMARK    4  A    between atoms: C_6  and  C_7 
REMARK    5  A    between atoms: C_6  and  C_8 
REMARK    6  A    between atoms: C_8  and  C_14 
ROOT
HETATM    1  O   UNL     1      12.113   3.822  10.898  1.00  0.00    -0.385 OA
HETATM    2  H   UNL     1      12.638   3.021  10.743  1.00  0.00     0.210 HD
ENDROOT
BRANCH   1   3
HETATM    3  C   UNL     1      12.874   4.966  10.533  1.00  0.00     0.223 C 
BRANCH   3   4
HETATM    4  C   UNL     1      13.861   5.279  11.669  1.00  0.00     0.081 C 
BRANCH   4   5
HETATM    5  C   UNL     1      13.186   5.811  12.887  1.00  0.00    -0.052 A 
HETATM    6  C   UNL     1      13.518   5.308  14.145  1.00  0.00     0.046 A 
HETATM    7  C   UNL     1      12.885   5.805  15.285  1.00  0.00     0.099 A 
HETATM    8  C   UNL     1      11.921   6.806  15.166  1.00  0.00     0.098 A 
HETATM    9  C   UNL     1      11.589   7.309  13.908  1.00  0.00     0.040 A 
HETATM   10  C   UNL     1      12.221   6.812  12.769  1.00  0.00     0.010 A 
BRANCH   7  11
HETATM   11  O   UNL     1      13.218   5.306  16.507  1.00  0.00    -0.358 OA
HETATM   12  H   UNL     1      13.949   4.727  16.593  1.00  0.00     0.217 HD
ENDBRANCH   7  11
BRANCH   8  13
HETATM   13  O   UNL     1      11.297   7.300  16.272  1.00  0.00    -0.358 OA
HETATM   14  H   UNL     1      11.061   8.206  16.311  1.00  0.00     0.217 HD
ENDBRANCH   8  13
ENDBRANCH   4   5
ENDBRANCH   3   4
BRANCH   3  15
HETATM   15  C   UNL     1      13.600   4.640   9.244  1.00  0.00     0.203 C 
HETATM   16  O   UNL     1      14.947   4.604   9.410  1.00  0.00    -0.646 OA
HETATM   17  O   UNL     1      13.057   4.445   8.165  1.00  0.00    -0.646 OA
ENDBRANCH   3  15
ENDBRANCH   1   3
TORSDOF 6
ENDMDL
MODEL 2
REMARK VINA RESULT:      -6.1      3.796      4.753
REMARK  6 active torsions:
REMARK  status: ('A' for Active; 'I' for Inactive)
REMARK    1  A    between atoms: O_1  and  C_8 
REMARK    2  A    between atoms: O_2  and  C_11 
REMARK    3  A    between atoms: O_3  and  C_13 
REMARK    4  A    between atoms: C_6  and  C_7 
REMARK    5  A    between atoms: C_6  and  C_8 
REMARK    6  A    between atoms: C_8  and  C_14 
ROOT
HETATM    1  O   UNL     1      12.292   4.916   8.592  1.00  0.00    -0.385 OA
HETATM    2  H   UNL     1      12.339   5.129   7.647  1.00  0.00     0.210 HD
ENDROOT
BRANCH   1   3
HETATM    3  C   UNL     1      13.576   4.509   9.050  1.00  0.00     0.223 C 
BRANCH   3   4
HETATM    4  C   UNL     1      13.616   4.651  10.581  1.00  0.00     0.081 C 
BRANCH   4   5
HETATM    5  C   UNL     1      14.941   5.113  11.081  1.00  0.00    -0.052 A 
HETATM    6  C   UNL     1      15.967   5.396  10.179  1.00  0.00     0.046 A 
HETATM    7  C   UNL     1      17.209   5.829  10.648  1.00  0.00     0.099 A 
HETATM    8  C   UNL     1      17.423   5.978  12.017  1.00  0.00     0.098 A 
HETATM    9  C   UNL     1      16.397   5.694  12.919  1.00  0.00     0.040 A 
HETATM   10  C   UNL     1      15.157   5.262  12.451  1.00  0.00     0.010 A 
BRANCH   7  11
HETATM   11  O   UNL     1      18.202   6.102   9.757  1.00  0.00    -0.358 OA
HETATM   12  H   UNL     1      17.989   6.411   8.899  1.00  0.00     0.217 HD
ENDBRANCH   7  11
BRANCH   8  13
HETATM   13  O   UNL     1      18.631   6.400  12.486  1.00  0.00    -0.358 OA
HETATM   14  H   UNL     1      18.812   6.374  13.406  1.00  0.00     0.217 HD
ENDBRANCH   8  13
ENDBRANCH   4   5
ENDBRANCH   3   4
BRANCH   3  15
HETATM   15  C   UNL     1      13.778   3.069   8.624  1.00  0.00     0.203 C 
HETATM   16  O   UNL     1      13.003   2.211   9.334  1.00  0.00    -0.646 OA
HETATM   17  O   UNL     1      14.558   2.701   7.755  1.00  0.00    -0.646 OA
ENDBRANCH   3  15
ENDBRANCH   1   3
TORSDOF 6
ENDMDL
MODEL 3
REMARK VINA RESULT:      -6.0      0.902      1.459
REMARK  6 active torsions:
REMARK  status: ('A' for Active; 'I' for Inactive)
REMARK    1  A    between atoms: O_1  and  C_8 
REMARK    2  A    between atoms: O_2  and  C_11 
REMARK    3  A    between atoms: O_3  and  C_13 
REMARK    4  A    between atoms: C_6  and  C_7 
REMARK    5  A    between atoms: C_6  and  C_8 
REMARK    6  A    between atoms: C_8  and  C_14 
ROOT
HETATM    1  O   UNL     1      15.763   5.125  10.805  1.00  0.00    -0.385 OA
HETATM    2  H   UNL     1      15.773   4.773   9.901  1.00  0.00     0.210 HD
ENDROOT
BRANCH   1   3
HETATM    3  C   UNL     1      14.419   5.221  11.261  1.00  0.00     0.223 C 
BRANCH   3   4
HETATM    4  C   UNL     1      14.126   6.689  11.613  1.00  0.00     0.081 C 
BRANCH   4   5
HETATM    5  C   UNL     1      13.353   6.833  12.879  1.00  0.00    -0.052 A 
HETATM    6  C   UNL     1      13.643   6.015  13.971  1.00  0.00     0.046 A 
HETATM    7  C   UNL     1      12.919   6.150  15.156  1.00  0.00     0.099 A 
HETATM    8  C   UNL     1      11.904   7.102  15.247  1.00  0.00     0.098 A 
HETATM    9  C   UNL     1      11.612   7.919  14.155  1.00  0.00     0.040 A 
HETATM   10  C   UNL     1      12.337   7.784  12.971  1.00  0.00     0.010 A 
BRANCH   7  11
HETATM   11  O   UNL     1      13.212   5.347  16.215  1.00  0.00    -0.358 OA
HETATM   12  H   UNL     1      13.960   5.530  16.748  1.00  0.00     0.217 HD
ENDBRANCH   7  11
BRANCH   8  13
HETATM   13  O   UNL     1      11.190   7.244  16.399  1.00  0.00    -0.358 OA
HETATM   14  H   UNL     1      10.534   6.613  16.625  1.00  0.00     0.217 HD
ENDBRANCH   8  13
ENDBRANCH   4   5
ENDBRANCH   3   4
BRANCH   3  15
HETATM   15  C   UNL     1      13.521   4.731  10.143  1.00  0.00     0.203 C 
HETATM   16  O   UNL     1      14.225   4.390   9.033  1.00  0.00    -0.646 OA
HETATM   17  O   UNL     1      12.301   4.661  10.206  1.00  0.00    -0.646 OA
ENDBRANCH   3  15
ENDBRANCH   1   3
TORSDOF 6
ENDMDL
MODEL 4
REMARK VINA RESULT:      -6.0      2.416      5.015
REMARK  6 active torsions:
REMARK  status: ('A' for Active; 'I' for Inactive)
REMARK    1  A    between atoms: O_1  and  C_8 
REMARK    2  A    between atoms: O_2  and  C_11 
REMARK    3  A    between atoms: O_3  and  C_13 
REMARK    4  A    between atoms: C_6  and  C_7 
REMARK    5  A    between atoms: C_6  and  C_8 
REMARK    6  A    between atoms: C_8  and  C_14 
ROOT
HETATM    1  O   UNL     1      11.538   5.713  14.823  1.00  0.00    -0.385 OA
HETATM    2  H   UNL     1      11.146   4.863  14.569  1.00  0.00     0.210 HD
ENDROOT
BRANCH   1   3
HETATM    3  C   UNL     1      12.525   6.084  13.867  1.00  0.00     0.223 C 
BRANCH   3   4
HETATM    4  C   UNL     1      13.051   4.808  13.189  1.00  0.00     0.081 C 
BRANCH   4   5
HETATM    5  C   UNL     1      14.233   5.066  12.318  1.00  0.00    -0.052 A 
HETATM    6  C   UNL     1      15.440   5.478  12.884  1.00  0.00     0.046 A 
HETATM    7  C   UNL     1      16.546   5.720  12.068  1.00  0.00     0.099 A 
HETATM    8  C   UNL     1      16.444   5.550  10.688  1.00  0.00     0.098 A 
HETATM    9  C   UNL     1      15.237   5.140  10.122  1.00  0.00     0.040 A 
HETATM   10  C   UNL     1      14.132   4.898  10.937  1.00  0.00     0.010 A 
BRANCH   7  11
HETATM   11  O   UNL     1      17.719   6.121  12.632  1.00  0.00    -0.358 OA
HETATM   12  H   UNL     1      18.422   6.418  12.090  1.00  0.00     0.217 HD
ENDBRANCH   7  11
BRANCH   8  13
HETATM   13  O   UNL     1      17.518   5.783   9.881  1.00  0.00    -0.358 OA
HETATM   14  H   UNL     1      18.172   6.403  10.138  1.00  0.00     0.217 HD
ENDBRANCH   8  13
ENDBRANCH   4   5
ENDBRANCH   3   4
BRANCH   3  15
HETATM   15  C   UNL     1      11.865   7.010  12.866  1.00  0.00     0.203 C 
HETATM   16  O   UNL     1      11.129   6.332  11.948  1.00  0.00    -0.646 OA
HETATM   17  O   UNL     1      11.983   8.228  12.856  1.00  0.00    -0.646 OA
ENDBRANCH   3  15
ENDBRANCH   1   3
TORSDOF 6
ENDMDL
MODEL 5
REMARK VINA RESULT:      -5.9      1.915      5.310
REMARK  6 active torsions:
REMARK  status: ('A' for Active; 'I' for Inactive)
REMARK    1  A    between atoms: O_1  and  C_8 
REMARK    2  A    between atoms: O_2  and  C_11 
REMARK    3  A    between atoms: O_3  and  C_13 
REMARK    4  A    between atoms: C_6  and  C_7 
REMARK    5  A    between atoms: C_6  and  C_8 
REMARK    6  A    between atoms: C_8  and  C_14 
ROOT
HETATM    1  O   UNL     1      11.411   6.111  15.193  1.00  0.00    -0.385 OA
HETATM    2  H   UNL     1      10.988   6.979  15.278  1.00  0.00     0.210 HD
ENDROOT
BRANCH   1   3
HETATM    3  C   UNL     1      12.583   6.232  14.396  1.00  0.00     0.223 C 
BRANCH   3   4
HETATM    4  C   UNL     1      12.734   4.956  13.551  1.00  0.00     0.081 C 
BRANCH   4   5
HETATM    5  C   UNL     1      13.798   5.074  12.515  1.00  0.00    -0.052 A 
HETATM    6  C   UNL     1      13.486   4.880  11.169  1.00  0.00     0.046 A 
HETATM    7  C   UNL     1      14.483   4.990  10.199  1.00  0.00     0.099 A 
HETATM    8  C   UNL     1      15.790   5.295  10.575  1.00  0.00     0.098 A 
HETATM    9  C   UNL     1      16.103   5.489  11.920  1.00  0.00     0.040 A 
HETATM   10  C   UNL     1      15.107   5.379  12.890  1.00  0.00     0.010 A 
BRANCH   7  11
HETATM   11  O   UNL     1      14.165   4.799   8.889  1.00  0.00    -0.358 OA
HETATM   12  H   UNL     1      13.350   5.115   8.553  1.00  0.00     0.217 HD
ENDBRANCH   7  11
BRANCH   8  13
HETATM   13  O   UNL     1      16.772   5.407   9.636  1.00  0.00    -0.358 OA
HETATM   14  H   UNL     1      16.797   6.154   9.071  1.00  0.00     0.217 HD
ENDBRANCH   8  13
ENDBRANCH   4   5
ENDBRANCH   3   4
BRANCH   3  15
HETATM   15  C   UNL     1      12.416   7.457  13.520  1.00  0.00     0.203 C 
HETATM   16  O   UNL     1      13.270   8.454  13.865  1.00  0.00    -0.646 OA
HETATM   17  O   UNL     1      11.599   7.563  12.614  1.00  0.00    -0.646 OA
ENDBRANCH   3  15
ENDBRANCH   1   3
TORSDOF 6
ENDMDL
MODEL 6
REMARK VINA RESULT:      -5.9      1.184      2.362
REMARK  6 active torsions:
REMARK  status: ('A' for Active; 'I' for Inactive)
REMARK    1  A    between atoms: O_1  and  C_8 
REMARK    2  A    between atoms: O_2  and  C_11 
REMARK    3  A    between atoms: O_3  and  C_13 
REMARK    4  A    between atoms: C_6  and  C_7 
REMARK    5  A    between atoms: C_6  and  C_8 
REMARK    6  A    between atoms: C_8  and  C_14 
ROOT
HETATM    1  O   UNL     1      15.765   5.232   9.569  1.00  0.00    -0.385 OA
HETATM    2  H   UNL     1      15.743   6.186   9.398  1.00  0.00     0.210 HD
ENDROOT
BRANCH   1   3
HETATM    3  C   UNL     1      14.647   4.868  10.370  1.00  0.00     0.223 C 
BRANCH   3   4
HETATM    4  C   UNL     1      14.189   6.104  11.160  1.00  0.00     0.081 C 
BRANCH   4   5
HETATM    5  C   UNL     1      13.986   5.818  12.608  1.00  0.00    -0.052 A 
HETATM    6  C   UNL     1      12.745   6.055  13.200  1.00  0.00     0.046 A 
HETATM    7  C   UNL     1      12.556   5.787  14.556  1.00  0.00     0.099 A 
HETATM    8  C   UNL     1      13.608   5.284  15.320  1.00  0.00     0.098 A 
HETATM    9  C   UNL     1      14.849   5.048  14.730  1.00  0.00     0.040 A 
HETATM   10  C   UNL     1      15.038   5.315  13.374  1.00  0.00     0.010 A 
BRANCH   7  11
HETATM   11  O   UNL     1      11.339   6.022  15.121  1.00  0.00    -0.358 OA
HETATM   12  H   UNL     1      10.806   5.304  15.399  1.00  0.00     0.217 HD
ENDBRANCH   7  11
BRANCH   8  13
HETATM   13  O   UNL     1      13.435   5.018  16.645  1.00  0.00    -0.358 OA
HETATM   14  H   UNL     1      12.648   4.602  16.941  1.00  0.00     0.217 HD
ENDBRANCH   8  13
ENDBRANCH   4   5
ENDBRANCH   3   4
BRANCH   3  15
HETATM   15  C   UNL     1      13.560   4.373   9.438  1.00  0.00     0.203 C 
HETATM   16  O   UNL     1      14.068   3.762   8.337  1.00  0.00    -0.646 OA
HETATM   17  O   UNL     1      12.359   4.513   9.628  1.00  0.00    -0.646 OA
ENDBRANCH   3  15
ENDBRANCH   1   3
TORSDOF 6
ENDMDL
MODEL 7
REMARK VINA RESULT:      -5.9      2.874      5.211
REMARK  6 active torsions:
REMARK  status: ('A' for Active; 'I' for Inactive)
REMARK    1  A    between atoms: O_1  and  C_8 
REMARK    2  A    between atoms: O_2  and  C_11 
REMARK    3  A    between atoms: O_3  and  C_13 
REMARK    4  A    between atoms: C_6  and  C_7 
REMARK    5  A    between atoms: C_6  and  C_8 
REMARK    6  A    between atoms: C_8  and  C_14 
ROOT
HETATM    1  O   UNL     1      11.827   3.830  12.201  1.00  0.00    -0.385 OA
HETATM    2  H   UNL     1      12.055   3.095  12.792  1.00  0.00     0.210 HD
ENDROOT
BRANCH   1   3
HETATM    3  C   UNL     1      12.809   4.852  12.316  1.00  0.00     0.223 C 
BRANCH   3   4
HETATM    4  C   UNL     1      13.735   4.780  11.091  1.00  0.00     0.081 C 
BRANCH   4   5
HETATM    5  C   UNL     1      15.128   5.214  11.397  1.00  0.00    -0.052 A 
HETATM    6  C   UNL     1      16.028   5.453  10.358  1.00  0.00     0.046 A 
HETATM    7  C   UNL     1      17.332   5.859  10.645  1.00  0.00     0.099 A 
HETATM    8  C   UNL     1      17.735   6.024  11.970  1.00  0.00     0.098 A 
HETATM    9  C   UNL     1      16.835   5.784  13.008  1.00  0.00     0.040 A 
HETATM   10  C   UNL     1      15.532   5.379  12.722  1.00  0.00     0.010 A 
BRANCH   7  11
HETATM   11  O   UNL     1      18.201   6.090   9.623  1.00  0.00    -0.358 OA
HETATM   12  H   UNL     1      18.746   5.398   9.306  1.00  0.00     0.217 HD
ENDBRANCH   7  11
BRANCH   8  13
HETATM   13  O   UNL     1      19.005   6.421  12.262  1.00  0.00    -0.358 OA
HETATM   14  H   UNL     1      19.725   5.839  12.111  1.00  0.00     0.217 HD
ENDBRANCH   8  13
ENDBRANCH   4   5
ENDBRANCH   3   4
BRANCH   3  15
HETATM   15  C   UNL     1      12.081   6.179  12.381  1.00  0.00     0.203 C 
HETATM   16  O   UNL     1      11.046   6.239  11.504  1.00  0.00    -0.646 OA
HETATM   17  O   UNL     1      12.385   7.109  13.117  1.00  0.00    -0.646 OA
ENDBRANCH   3  15
ENDBRANCH   1   3
TORSDOF 6
ENDMDL
MODEL 8
REMARK VINA RESULT:      -5.8      0.883      1.767
REMARK  6 active torsions:
REMARK  status: ('A' for Active; 'I' for Inactive)
REMARK    1  A    between atoms: O_1  and  C_8 
REMARK    2  A    between atoms: O_2  and  C_11 
REMARK    3  A    between atoms: O_3  and  C_13 
REMARK    4  A    between atoms: C_6  and  C_7 
REMARK    5  A    between atoms: C_6  and  C_8 
REMARK    6  A    between atoms: C_8  and  C_14 
ROOT
HETATM    1  O   UNL     1      12.363   3.709  11.129  1.00  0.00    -0.385 OA
HETATM    2  H   UNL     1      12.927   2.930  10.999  1.00  0.00     0.210 HD
ENDROOT
BRANCH   1   3
HETATM    3  C   UNL     1      13.141   4.889  10.966  1.00  0.00     0.223 C 
BRANCH   3   4
HETATM    4  C   UNL     1      14.195   4.938  12.085  1.00  0.00     0.081 C 
BRANCH   4   5
HETATM    5  C   UNL     1      13.648   5.465  13.367  1.00  0.00    -0.052 A 
HETATM    6  C   UNL     1      12.430   6.144  13.380  1.00  0.00     0.046 A 
HETATM    7  C   UNL     1      11.918   6.638  14.580  1.00  0.00     0.099 A 
HETATM    8  C   UNL     1      12.626   6.453  15.767  1.00  0.00     0.098 A 
HETATM    9  C   UNL     1      13.845   5.775  15.755  1.00  0.00     0.040 A 
HETATM   10  C   UNL     1      14.356   5.281  14.555  1.00  0.00     0.010 A 
BRANCH   7  11
HETATM   11  O   UNL     1      10.728   7.298  14.579  1.00  0.00    -0.358 OA
HETATM   12  H   UNL     1      10.171   7.259  13.827  1.00  0.00     0.217 HD
ENDBRANCH   7  11
BRANCH   8  13
HETATM   13  O   UNL     1      12.136   6.930  16.946  1.00  0.00    -0.358 OA
HETATM   14  H   UNL     1      12.601   7.597  17.411  1.00  0.00     0.217 HD
ENDBRANCH   8  13
ENDBRANCH   4   5
ENDBRANCH   3   4
BRANCH   3  15
HETATM   15  C   UNL     1      13.789   4.824   9.598  1.00  0.00     0.203 C 
HETATM   16  O   UNL     1      15.135   4.987   9.662  1.00  0.00    -0.646 OA
HETATM   17  O   UNL     1      13.186   4.662   8.546  1.00  0.00    -0.646 OA
ENDBRANCH   3  15
ENDBRANCH   1   3
TORSDOF 6
ENDMDL
MODEL 9
REMARK VINA RESULT:      -5.7      1.415      5.384
REMARK  6 active torsions:
REMARK  status: ('A' for Active; 'I' for Inactive)
REMARK    1  A    between atoms: O_1  and  C_8 
REMARK    2  A    between atoms: O_2  and  C_11 
REMARK    3  A    between atoms: O_3  and  C_13 
REMARK    4  A    between atoms: C_6  and  C_7 
REMARK    5  A    between atoms: C_6  and  C_8 
REMARK    6  A    between atoms: C_8  and  C_14 
ROOT
HETATM    1  O   UNL     1      12.841   6.411  16.623  1.00  0.00    -0.385 OA
HETATM    2  H   UNL     1      11.887   6.580  16.644  1.00  0.00     0.210 HD
ENDROOT
BRANCH   1   3
HETATM    3  C   UNL     1      13.302   6.459  15.278  1.00  0.00     0.223 C 
BRANCH   3   4
HETATM    4  C   UNL     1      13.148   5.060  14.659  1.00  0.00     0.081 C 
BRANCH   4   5
HETATM    5  C   UNL     1      13.590   5.009  13.237  1.00  0.00    -0.052 A 
HETATM    6  C   UNL     1      12.683   4.663  12.235  1.00  0.00     0.046 A 
HETATM    7  C   UNL     1      13.098   4.615  10.904  1.00  0.00     0.099 A 
HETATM    8  C   UNL     1      14.420   4.913  10.575  1.00  0.00     0.098 A 
HETATM    9  C   UNL     1      15.328   5.259  11.576  1.00  0.00     0.040 A 
HETATM   10  C   UNL     1      14.913   5.307  12.907  1.00  0.00     0.010 A 
BRANCH   7  11
HETATM   11  O   UNL     1      12.203   4.277   9.936  1.00  0.00    -0.358 OA
HETATM   12  H   UNL     1      11.577   3.598  10.093  1.00  0.00     0.217 HD
ENDBRANCH   7  11
BRANCH   8  13
HETATM   13  O   UNL     1      14.836   4.871   9.278  1.00  0.00    -0.358 OA
HETATM   14  H   UNL     1      15.367   5.562   8.933  1.00  0.00     0.217 HD
ENDBRANCH   8  13
ENDBRANCH   4   5
ENDBRANCH   3   4
BRANCH   3  15
HETATM   15  C   UNL     1      12.463   7.484  14.544  1.00  0.00     0.203 C 
HETATM   16  O   UNL     1      13.219   8.476  14.007  1.00  0.00    -0.646 OA
HETATM   17  O   UNL     1      11.243   7.451  14.450  1.00  0.00    -0.646 OA
ENDBRANCH   3  15
ENDBRANCH   1   3
TORSDOF 6
ENDMDL
