MODEL 1
REMARK VINA RESULT:      -6.1      0.000      0.000
REMARK  6 active torsions:
REMARK  status: ('A' for Active; 'I' for Inactive)
REMARK    1  A    between atoms: O_1  and  C_8 
REMARK    2  A    between atoms: O_2  and  C_11 
REMARK    3  A    between atoms: O_3  and  C_13 
REMARK    4  A    between atoms: C_6  and  C_7 
REMARK    5  A    between atoms: C_6  and  C_8 
REMARK    6  A    between atoms: C_8  and  C_14 
ROOT
HETATM    1  O   UNL     1      10.026   7.649   6.238  1.00  0.00    -0.385 OA
HETATM    2  H   UNL     1       9.678   7.464   5.352  1.00  0.00     0.210 HD
ENDROOT
BRANCH   1   3
HETATM    3  C   UNL     1      11.154   6.819   6.487  1.00  0.00     0.223 C 
BRANCH   3   4
HETATM    4  C   UNL     1      11.405   6.776   8.003  1.00  0.00     0.081 C 
BRANCH   4   5
HETATM    5  C   UNL     1      12.851   6.874   8.350  1.00  0.00    -0.052 A 
HETATM    6  C   UNL     1      13.791   7.141   7.354  1.00  0.00     0.046 A 
HETATM    7  C   UNL     1      15.145   7.232   7.679  1.00  0.00     0.099 A 
HETATM    8  C   UNL     1      15.558   7.056   8.999  1.00  0.00     0.098 A 
HETATM    9  C   UNL     1      14.619   6.788   9.994  1.00  0.00     0.040 A 
HETATM   10  C   UNL     1      13.266   6.697   9.670  1.00  0.00     0.010 A 
BRANCH   7  11
HETATM   11  O   UNL     1      16.052   7.494   6.698  1.00  0.00    -0.358 OA
HETATM   12  H   UNL     1      16.932   7.184   6.779  1.00  0.00     0.217 HD
ENDBRANCH   7  11
BRANCH   8  13
HETATM   13  O   UNL     1      16.878   7.144   9.328  1.00  0.00    -0.358 OA
HETATM   14  H   UNL     1      17.340   7.949   9.200  1.00  0.00     0.217 HD
ENDBRANCH   8  13
ENDBRANCH   4   5
ENDBRANCH   3   4
BRANCH   3  15
HETATM   15  C   UNL     1      10.838   5.442   5.940  1.00  0.00     0.203 C 
HETATM   16  O   UNL     1      10.101   4.703   6.808  1.00  0.00    -0.646 OA
HETATM   17  O   UNL     1      11.209   5.019   4.853  1.00  0.00    -0.646 OA
ENDBRANCH   3  15
ENDBRANCH   1   3
TORSDOF 6
ENDMDL
MODEL 2
REMARK VINA RESULT:      -6.0      3.677      4.628
REMARK  6 active torsions:
REMARK  status: ('A' for Active; 'I' for Inactive)
REMARK    1  A    between atoms: O_1  and  C_8 
REMARK    2  A    between atoms: O_2  and  C_11 
REMARK    3  A    between atoms: O_3  and  C_13 
REMARK    4  A    between atoms: C_6  and  C_7 
REMARK    5  A    between atoms: C_6  and  C_8 
REMARK    6  A    between atoms: C_8  and  C_14 
ROOT
HETATM    1  O   UNL     1       9.946   5.971   8.256  1.00  0.00    -0.385 OA
HETATM    2  H   UNL     1      10.374   5.100   8.265  1.00  0.00     0.210 HD
ENDROOT
BRANCH   1   3
HETATM    3  C   UNL     1      10.905   6.967   7.920  1.00  0.00     0.223 C 
BRANCH   3   4
HETATM    4  C   UNL     1      12.049   6.909   8.946  1.00  0.00     0.081 C 
BRANCH   4   5
HETATM    5  C   UNL     1      11.613   7.304  10.315  1.00  0.00    -0.052 A 
HETATM    6  C   UNL     1      11.920   6.491  11.407  1.00  0.00     0.046 A 
HETATM    7  C   UNL     1      11.512   6.860  12.689  1.00  0.00     0.099 A 
HETATM    8  C   UNL     1      10.797   8.042  12.879  1.00  0.00     0.098 A 
HETATM    9  C   UNL     1      10.489   8.854  11.788  1.00  0.00     0.040 A 
HETATM   10  C   UNL     1      10.897   8.485  10.506  1.00  0.00     0.010 A 
BRANCH   7  11
HETATM   11  O   UNL     1      11.819   6.059  13.746  1.00  0.00    -0.358 OA
HETATM   12  H   UNL     1      12.633   6.168  14.196  1.00  0.00     0.217 HD
ENDBRANCH   7  11
BRANCH   8  13
HETATM   13  O   UNL     1      10.394   8.413  14.126  1.00  0.00    -0.358 OA
HETATM   14  H   UNL     1       9.664   7.986  14.530  1.00  0.00     0.217 HD
ENDBRANCH   8  13
ENDBRANCH   4   5
ENDBRANCH   3   4
BRANCH   3  15
HETATM   15  C   UNL     1      11.402   6.668   6.520  1.00  0.00     0.203 C 
HETATM   16  O   UNL     1      12.757   6.631   6.456  1.00  0.00    -0.646 OA
HETATM   17  O   UNL     1      10.683   6.496   5.545  1.00  0.00    -0.646 OA
ENDBRANCH   3  15
ENDBRANCH   1   3
TORSDOF 6
ENDMDL
MODEL 3
REMARK VINA RESULT:      -6.0      3.909      4.894
REMARK  6 active torsions:
REMARK  status: ('A' for Active; 'I' for Inactive)
REMARK    1  A    between atoms: O_1  and  C_8 
REMARK    2  A    between atoms: O_2  and  C_11 
REMARK    3  A    between atoms: O_3  and  C_13 
REMARK    4  A    between atoms: C_6  and  C_7 
REMARK    5  A    between atoms: C_6  and  C_8 
REMARK    6  A    between atoms: C_8  and  C_14 
ROOT
HETATM    1  O   UNL     1      13.611   6.850   7.952  1.00  0.00    -0.385 OA
HETATM    2  H   UNL     1      13.507   6.845   6.988  1.00  0.00     0.210 HD
ENDROOT
BRANCH   1   3
HETATM    3  C   UNL     1      12.334   6.981   8.565  1.00  0.00     0.223 C 
BRANCH   3   4
HETATM    4  C   UNL     1      12.218   8.397   9.153  1.00  0.00     0.081 C 
BRANCH   4   5
HETATM    5  C   UNL     1      11.774   8.395  10.576  1.00  0.00    -0.052 A 
HETATM    6  C   UNL     1      11.929   7.246  11.353  1.00  0.00     0.046 A 
HETATM    7  C   UNL     1      11.513   7.244  12.685  1.00  0.00     0.099 A 
HETATM    8  C   UNL     1      10.943   8.389  13.239  1.00  0.00     0.098 A 
HETATM    9  C   UNL     1      10.788   9.538  12.462  1.00  0.00     0.040 A 
HETATM   10  C   UNL     1      11.203   9.540  11.131  1.00  0.00     0.010 A 
BRANCH   7  11
HETATM   11  O   UNL     1      11.670   6.117  13.433  1.00  0.00    -0.358 OA
HETATM   12  H   UNL     1      11.527   5.275  13.047  1.00  0.00     0.217 HD
ENDBRANCH   7  11
BRANCH   8  13
HETATM   13  O   UNL     1      10.535   8.399  14.539  1.00  0.00    -0.358 OA
HETATM   14  H   UNL     1       9.804   8.926  14.797  1.00  0.00     0.217 HD
ENDBRANCH   8  13
ENDBRANCH   4   5
ENDBRANCH   3   4
BRANCH   3  15
HETATM   15  C   UNL     1      11.287   6.738   7.498  1.00  0.00     0.203 C 
HETATM   16  O   UNL     1      11.841   6.429   6.298  1.00  0.00    -0.646 OA
HETATM   17  O   UNL     1      10.078   6.823   7.672  1.00  0.00    -0.646 OA
ENDBRANCH   3  15
ENDBRANCH   1   3
TORSDOF 6
ENDMDL
MODEL 4
REMARK VINA RESULT:      -6.0      2.854      4.142
REMARK  6 active torsions:
REMARK  status: ('A' for Active; 'I' for Inactive)
REMARK    1  A    between atoms: O_1  and  C_8 
REMARK    2  A    between atoms: O_2  and  C_11 
REMARK    3  A    between atoms: O_3  and  C_13 
REMARK    4  A    between atoms: C_6  and  C_7 
REMARK    5  A    between atoms: C_6  and  C_8 
REMARK    6  A    between atoms: C_8  and  C_14 
ROOT
HETATM    1  O   UNL     1      10.387   7.102  12.608  1.00  0.00    -0.385 OA
HETATM    2  H   UNL     1      10.033   6.227  12.385  1.00  0.00     0.210 HD
ENDROOT
BRANCH   1   3
HETATM    3  C   UNL     1      11.211   7.565  11.546  1.00  0.00     0.223 C 
BRANCH   3   4
HETATM    4  C   UNL     1      11.390   6.423  10.532  1.00  0.00     0.081 C 
BRANCH   4   5
HETATM    5  C   UNL     1      12.498   6.677   9.569  1.00  0.00    -0.052 A 
HETATM    6  C   UNL     1      13.816   6.737  10.020  1.00  0.00     0.046 A 
HETATM    7  C   UNL     1      14.854   6.976   9.118  1.00  0.00     0.099 A 
HETATM    8  C   UNL     1      14.571   7.156   7.764  1.00  0.00     0.098 A 
HETATM    9  C   UNL     1      13.253   7.097   7.312  1.00  0.00     0.040 A 
HETATM   10  C   UNL     1      12.217   6.858   8.214  1.00  0.00     0.010 A 
BRANCH   7  11
HETATM   11  O   UNL     1      16.136   7.031   9.572  1.00  0.00    -0.358 OA
HETATM   12  H   UNL     1      16.827   6.645   9.070  1.00  0.00     0.217 HD
ENDBRANCH   7  11
BRANCH   8  13
HETATM   13  O   UNL     1      15.576   7.388   6.874  1.00  0.00    -0.358 OA
HETATM   14  H   UNL     1      15.471   7.145   5.975  1.00  0.00     0.217 HD
ENDBRANCH   8  13
ENDBRANCH   4   5
ENDBRANCH   3   4
BRANCH   3  15
HETATM   15  C   UNL     1      10.519   8.757  10.917  1.00  0.00     0.203 C 
HETATM   16  O   UNL     1       9.581   8.385  10.010  1.00  0.00    -0.646 OA
HETATM   17  O   UNL     1      10.773   9.927  11.171  1.00  0.00    -0.646 OA
ENDBRANCH   3  15
ENDBRANCH   1   3
TORSDOF 6
ENDMDL
MODEL 5
REMARK VINA RESULT:      -6.0      3.159      4.464
REMARK  6 active torsions:
REMARK  status: ('A' for Active; 'I' for Inactive)
REMARK    1  A    between atoms: O_1  and  C_8 
REMARK    2  A    between atoms: O_2  and  C_11 
REMARK    3  A    between atoms: O_3  and  C_13 
REMARK    4  A    between atoms: C_6  and  C_7 
REMARK    5  A    between atoms: C_6  and  C_8 
REMARK    6  A    between atoms: C_8  and  C_14 
ROOT
HETATM    1  O   UNL     1      10.239   7.358  13.018  1.00  0.00    -0.385 OA
HETATM    2  H   UNL     1       9.793   8.189  13.247  1.00  0.00     0.210 HD
ENDROOT
BRANCH   1   3
HETATM    3  C   UNL     1      11.209   7.605  12.006  1.00  0.00     0.223 C 
BRANCH   3   4
HETATM    4  C   UNL     1      11.304   6.361  11.108  1.00  0.00     0.081 C 
BRANCH   4   5
HETATM    5  C   UNL     1      12.178   6.576   9.920  1.00  0.00    -0.052 A 
HETATM    6  C   UNL     1      11.619   6.631   8.643  1.00  0.00     0.046 A 
HETATM    7  C   UNL     1      12.437   6.831   7.531  1.00  0.00     0.099 A 
HETATM    8  C   UNL     1      13.814   6.976   7.696  1.00  0.00     0.098 A 
HETATM    9  C   UNL     1      14.374   6.920   8.972  1.00  0.00     0.040 A 
HETATM   10  C   UNL     1      13.556   6.720  10.084  1.00  0.00     0.010 A 
BRANCH   7  11
HETATM   11  O   UNL     1      11.878   6.884   6.290  1.00  0.00    -0.358 OA
HETATM   12  H   UNL     1      10.972   7.097   6.193  1.00  0.00     0.217 HD
ENDBRANCH   7  11
BRANCH   8  13
HETATM   13  O   UNL     1      14.622   7.174   6.617  1.00  0.00    -0.358 OA
HETATM   14  H   UNL     1      14.335   6.919   5.762  1.00  0.00     0.217 HD
ENDBRANCH   8  13
ENDBRANCH   4   5
ENDBRANCH   3   4
BRANCH   3  15
HETATM   15  C   UNL     1      10.753   8.819  11.223  1.00  0.00     0.203 C 
HETATM   16  O   UNL     1      11.530   9.906  11.465  1.00  0.00    -0.646 OA
HETATM   17  O   UNL     1       9.790   8.843  10.468  1.00  0.00    -0.646 OA
ENDBRANCH   3  15
ENDBRANCH   1   3
TORSDOF 6
ENDMDL
MODEL 6
REMARK VINA RESULT:      -5.8      3.106      4.067
REMARK  6 active torsions:
REMARK  status: ('A' for Active; 'I' for Inactive)
REMARK    1  A    between atoms: O_1  and  C_8 
REMARK    2  A    between atoms: O_2  and  C_11 
REMARK    3  A    between atoms: O_3  and  C_13 
REMARK    4  A    between atoms: C_6  and  C_7 
REMARK    5  A    between atoms: C_6  and  C_8 
REMARK    6  A    between atoms: C_8  and  C_14 
ROOT
HETATM    1  O   UNL     1      13.518   6.868   6.592  1.00  0.00    -0.385 OA
HETATM    2  H   UNL     1      13.987   7.691   6.799  1.00  0.00     0.210 HD
ENDROOT
BRANCH   1   3
HETATM    3  C   UNL     1      12.409   6.722   7.471  1.00  0.00     0.223 C 
BRANCH   3   4
HETATM    4  C   UNL     1      12.388   7.920   8.435  1.00  0.00     0.081 C 
BRANCH   4   5
HETATM    5  C   UNL     1      12.277   7.507   9.863  1.00  0.00    -0.052 A 
HETATM    6  C   UNL     1      11.258   8.026  10.662  1.00  0.00     0.046 A 
HETATM    7  C   UNL     1      11.154   7.640  11.999  1.00  0.00     0.099 A 
HETATM    8  C   UNL     1      12.070   6.736  12.536  1.00  0.00     0.098 A 
HETATM    9  C   UNL     1      13.090   6.218  11.737  1.00  0.00     0.040 A 
HETATM   10  C   UNL     1      13.193   6.603  10.401  1.00  0.00     0.010 A 
BRANCH   7  11
HETATM   11  O   UNL     1      10.155   8.152  12.768  1.00  0.00    -0.358 OA
HETATM   12  H   UNL     1       9.691   8.915  12.486  1.00  0.00     0.217 HD
ENDBRANCH   7  11
BRANCH   8  13
HETATM   13  O   UNL     1      11.978   6.350  13.839  1.00  0.00    -0.358 OA
HETATM   14  H   UNL     1      12.733   6.019  14.284  1.00  0.00     0.217 HD
ENDBRANCH   8  13
ENDBRANCH   4   5
ENDBRANCH   3   4
BRANCH   3  15
HETATM   15  C   UNL     1      11.155   6.675   6.622  1.00  0.00     0.203 C 
HETATM   16  O   UNL     1      10.035   6.922   7.348  1.00  0.00    -0.646 OA
HETATM   17  O   UNL     1      11.132   6.427   5.423  1.00  0.00    -0.646 OA
ENDBRANCH   3  15
ENDBRANCH   1   3
TORSDOF 6
ENDMDL
MODEL 7
REMARK VINA RESULT:      -5.8      2.524      3.343
REMARK  6 active torsions:
REMARK  status: ('A' for Active; 'I' for Inactive)
REMARK    1  A    between atoms: O_1  and  C_8 
REMARK    2  A    between atoms: O_2  and  C_11 
REMARK    3  A    between atoms: O_3  and  C_13 
REMARK    4  A    between atoms: C_6  and  C_7 
REMARK    5  A    between atoms: C_6  and  C_8 
REMARK    6  A    between atoms: C_8  and  C_14 
ROOT
HETATM    1  O   UNL     1      10.530   6.133  11.073  1.00  0.00    -0.385 OA
HETATM    2  H   UNL     1       9.675   6.508  11.339  1.00  0.00     0.210 HD
ENDROOT
BRANCH   1   3
HETATM    3  C   UNL     1      11.359   7.167  10.556  1.00  0.00     0.223 C 
BRANCH   3   4
HETATM    4  C   UNL     1      11.893   6.724   9.183  1.00  0.00     0.081 C 
BRANCH   4   5
HETATM    5  C   UNL     1      13.374   6.846   9.076  1.00  0.00    -0.052 A 
HETATM    6  C   UNL     1      13.966   7.092   7.837  1.00  0.00     0.046 A 
HETATM    7  C   UNL     1      15.353   7.206   7.736  1.00  0.00     0.099 A 
HETATM    8  C   UNL     1      16.147   7.073   8.874  1.00  0.00     0.098 A 
HETATM    9  C   UNL     1      15.556   6.826  10.113  1.00  0.00     0.040 A 
HETATM   10  C   UNL     1      14.170   6.712  10.214  1.00  0.00     0.010 A 
BRANCH   7  11
HETATM   11  O   UNL     1      15.918   7.448   6.521  1.00  0.00    -0.358 OA
HETATM   12  H   UNL     1      15.815   8.285   6.115  1.00  0.00     0.217 HD
ENDBRANCH   7  11
BRANCH   8  13
HETATM   13  O   UNL     1      17.503   7.184   8.788  1.00  0.00    -0.358 OA
HETATM   14  H   UNL     1      17.900   7.470   7.989  1.00  0.00     0.217 HD
ENDBRANCH   8  13
ENDBRANCH   4   5
ENDBRANCH   3   4
BRANCH   3  15
HETATM   15  C   UNL     1      10.513   8.418  10.442  1.00  0.00     0.203 C 
HETATM   16  O   UNL     1       9.428   8.232   9.648  1.00  0.00    -0.646 OA
HETATM   17  O   UNL     1      10.769   9.487  10.980  1.00  0.00    -0.646 OA
ENDBRANCH   3  15
ENDBRANCH   1   3
TORSDOF 6
ENDMDL
MODEL 8
REMARK VINA RESULT:      -5.8      3.819      5.214
REMARK  6 active torsions:
REMARK  status: ('A' for Active; 'I' for Inactive)
REMARK    1  A    between atoms: O_1  and  C_8 
REMARK    2  A    between atoms: O_2  and  C_11 
REMARK    3  A    between atoms: O_3  and  C_13 
REMARK    4  A    between atoms: C_6  and  C_7 
REMARK    5  A    between atoms: C_6  and  C_8 
REMARK    6  A    between atoms: C_8  and  C_14 
ROOT
HETATM    1  O   UNL     1      12.621   8.409   7.104  1.00  0.00    -0.385 OA
HETATM    2  H   UNL     1      11.815   7.956   6.812  1.00  0.00     0.210 HD
ENDROOT
BRANCH   1   3
HETATM    3  C   UNL     1      12.912   8.041   8.447  1.00  0.00     0.223 C 
BRANCH   3   4
HETATM    4  C   UNL     1      11.721   7.244   9.004  1.00  0.00     0.081 C 
BRANCH   4   5
HETATM    5  C   UNL     1      11.426   7.571  10.428  1.00  0.00    -0.052 A 
HETATM    6  C   UNL     1      11.831   6.703  11.442  1.00  0.00     0.046 A 
HETATM    7  C   UNL     1      11.554   7.009  12.775  1.00  0.00     0.099 A 
HETATM    8  C   UNL     1      10.871   8.183  13.092  1.00  0.00     0.098 A 
HETATM    9  C   UNL     1      10.465   9.050  12.078  1.00  0.00     0.040 A 
HETATM   10  C   UNL     1      10.742   8.744  10.746  1.00  0.00     0.010 A 
BRANCH   7  11
HETATM   11  O   UNL     1      11.956   6.155  13.755  1.00  0.00    -0.358 OA
HETATM   12  H   UNL     1      11.339   5.571  14.149  1.00  0.00     0.217 HD
ENDBRANCH   7  11
BRANCH   8  13
HETATM   13  O   UNL     1      10.596   8.493  14.390  1.00  0.00    -0.358 OA
HETATM   14  H   UNL     1      11.137   9.104  14.851  1.00  0.00     0.217 HD
ENDBRANCH   8  13
ENDBRANCH   4   5
ENDBRANCH   3   4
BRANCH   3  15
HETATM   15  C   UNL     1      14.176   7.206   8.428  1.00  0.00     0.203 C 
HETATM   16  O   UNL     1      14.623   6.983   7.166  1.00  0.00    -0.646 OA
HETATM   17  O   UNL     1      14.734   6.759   9.421  1.00  0.00    -0.646 OA
ENDBRANCH   3  15
ENDBRANCH   1   3
TORSDOF 6
ENDMDL
MODEL 9
REMARK VINA RESULT:      -5.8      1.541      5.409
REMARK  6 active torsions:
REMARK  status: ('A' for Active; 'I' for Inactive)
REMARK    1  A    between atoms: O_1  and  C_8 
REMARK    2  A    between atoms: O_2  and  C_11 
REMARK    3  A    between atoms: O_3  and  C_13 
REMARK    4  A    between atoms: C_6  and  C_7 
REMARK    5  A    between atoms: C_6  and  C_8 
REMARK    6  A    between atoms: C_8  and  C_14 
ROOT
HETATM    1  O   UNL     1      16.072   8.123   9.946  1.00  0.00    -0.385 OA
HETATM    2  H   UNL     1      16.030   7.951  10.899  1.00  0.00     0.210 HD
ENDROOT
BRANCH   1   3
HETATM    3  C   UNL     1      15.889   6.904   9.236  1.00  0.00     0.223 C 
BRANCH   3   4
HETATM    4  C   UNL     1      14.933   7.163   8.060  1.00  0.00     0.081 C 
BRANCH   4   5
HETATM    5  C   UNL     1      13.502   6.964   8.427  1.00  0.00    -0.052 A 
HETATM    6  C   UNL     1      12.508   7.091   7.457  1.00  0.00     0.046 A 
HETATM    7  C   UNL     1      11.169   6.906   7.802  1.00  0.00     0.099 A 
HETATM    8  C   UNL     1      10.825   6.593   9.117  1.00  0.00     0.098 A 
HETATM    9  C   UNL     1      11.819   6.466  10.087  1.00  0.00     0.040 A 
HETATM   10  C   UNL     1      13.157   6.651   9.743  1.00  0.00     0.010 A 
BRANCH   7  11
HETATM   11  O   UNL     1      10.208   7.032   6.846  1.00  0.00    -0.358 OA
HETATM   12  H   UNL     1      10.071   7.857   6.426  1.00  0.00     0.217 HD
ENDBRANCH   7  11
BRANCH   8  13
HETATM   13  O   UNL     1       9.520   6.408   9.465  1.00  0.00    -0.358 OA
HETATM   14  H   UNL     1       8.864   7.000   9.155  1.00  0.00     0.217 HD
ENDBRANCH   8  13
ENDBRANCH   4   5
ENDBRANCH   3   4
BRANCH   3  15
HETATM   15  C   UNL     1      17.250   6.448   8.751  1.00  0.00     0.203 C 
HETATM   16  O   UNL     1      17.754   7.268   7.794  1.00  0.00    -0.646 OA
HETATM   17  O   UNL     1      17.836   5.450   9.150  1.00  0.00    -0.646 OA
ENDBRANCH   3  15
ENDBRANCH   1   3
TORSDOF 6
ENDMDL
