MODEL 1
REMARK VINA RESULT:      -6.1      0.000      0.000
REMARK  6 active torsions:
REMARK  status: ('A' for Active; 'I' for Inactive)
REMARK    1  A    between atoms: O_1  and  C_8 
REMARK    2  A    between atoms: O_2  and  C_11 
REMARK    3  A    between atoms: O_3  and  C_13 
REMARK    4  A    between atoms: C_6  and  C_7 
REMARK    5  A    between atoms: C_6  and  C_8 
REMARK    6  A    between atoms: C_8  and  C_14 
ROOT
HETATM    1  O   UNL     1      12.255   5.079   8.905  1.00  0.00    -0.385 OA
HETATM    2  H   UNL     1      11.592   4.399   9.104  1.00  0.00     0.210 HD
ENDROOT
BRANCH   1   3
HETATM    3  C   UNL     1      13.548   4.592   9.244  1.00  0.00     0.223 C 
BRANCH   3   4
HETATM    4  C   UNL     1      13.705   4.645  10.773  1.00  0.00     0.081 C 
BRANCH   4   5
HETATM    5  C   UNL     1      15.046   5.136  11.197  1.00  0.00    -0.052 A 
HETATM    6  C   UNL     1      16.027   5.400  10.241  1.00  0.00     0.046 A 
HETATM    7  C   UNL     1      17.283   5.860  10.638  1.00  0.00     0.099 A 
HETATM    8  C   UNL     1      17.557   6.055  11.992  1.00  0.00     0.098 A 
HETATM    9  C   UNL     1      16.577   5.790  12.948  1.00  0.00     0.040 A 
HETATM   10  C   UNL     1      15.322   5.331  12.551  1.00  0.00     0.010 A 
BRANCH   7  11
HETATM   11  O   UNL     1      18.231   6.115   9.696  1.00  0.00    -0.358 OA
HETATM   12  H   UNL     1      18.602   6.972   9.625  1.00  0.00     0.217 HD
ENDBRANCH   7  11
BRANCH   8  13
HETATM   13  O   UNL     1      18.780   6.504  12.391  1.00  0.00    -0.358 OA
HETATM   14  H   UNL     1      19.555   6.038  12.145  1.00  0.00     0.217 HD
ENDBRANCH   8  13
ENDBRANCH   4   5
ENDBRANCH   3   4
BRANCH   3  15
HETATM   15  C   UNL     1      13.652   3.172   8.727  1.00  0.00     0.203 C 
HETATM   16  O   UNL     1      12.907   2.304   9.459  1.00  0.00    -0.646 OA
HETATM   17  O   UNL     1      14.336   2.823   7.774  1.00  0.00    -0.646 OA
ENDBRANCH   3  15
ENDBRANCH   1   3
TORSDOF 6
ENDMDL
MODEL 2
REMARK VINA RESULT:      -6.1      3.732      4.737
REMARK  6 active torsions:
REMARK  status: ('A' for Active; 'I' for Inactive)
REMARK    1  A    between atoms: O_1  and  C_8 
REMARK    2  A    between atoms: O_2  and  C_11 
REMARK    3  A    between atoms: O_3  and  C_13 
REMARK    4  A    between atoms: C_6  and  C_7 
REMARK    5  A    between atoms: C_6  and  C_8 
REMARK    6  A    between atoms: C_8  and  C_14 
ROOT
HETATM    1  O   UNL     1      12.282   3.481  11.135  1.00  0.00    -0.385 OA
HETATM    2  H   UNL     1      12.152   3.629  12.084  1.00  0.00     0.210 HD
ENDROOT
BRANCH   1   3
HETATM    3  C   UNL     1      12.862   4.641  10.550  1.00  0.00     0.223 C 
BRANCH   3   4
HETATM    4  C   UNL     1      13.851   5.253  11.555  1.00  0.00     0.081 C 
BRANCH   4   5
HETATM    5  C   UNL     1      13.178   5.777  12.777  1.00  0.00    -0.052 A 
HETATM    6  C   UNL     1      13.503   5.258  14.030  1.00  0.00     0.046 A 
HETATM    7  C   UNL     1      12.873   5.749  15.174  1.00  0.00     0.099 A 
HETATM    8  C   UNL     1      11.917   6.758  15.064  1.00  0.00     0.098 A 
HETATM    9  C   UNL     1      11.591   7.277  13.811  1.00  0.00     0.040 A 
HETATM   10  C   UNL     1      12.222   6.787  12.668  1.00  0.00     0.010 A 
BRANCH   7  11
HETATM   11  O   UNL     1      13.199   5.234  16.392  1.00  0.00    -0.358 OA
HETATM   12  H   UNL     1      14.058   4.890  16.539  1.00  0.00     0.217 HD
ENDBRANCH   7  11
BRANCH   8  13
HETATM   13  O   UNL     1      11.296   7.246  16.174  1.00  0.00    -0.358 OA
HETATM   14  H   UNL     1      11.012   6.660  16.848  1.00  0.00     0.217 HD
ENDBRANCH   8  13
ENDBRANCH   4   5
ENDBRANCH   3   4
BRANCH   3  15
HETATM   15  C   UNL     1      13.563   4.210   9.278  1.00  0.00     0.203 C 
HETATM   16  O   UNL     1      14.864   4.598   9.253  1.00  0.00    -0.646 OA
HETATM   17  O   UNL     1      13.033   3.598   8.360  1.00  0.00    -0.646 OA
ENDBRANCH   3  15
ENDBRANCH   1   3
TORSDOF 6
ENDMDL
MODEL 3
REMARK VINA RESULT:      -6.1      3.918      4.987
REMARK  6 active torsions:
REMARK  status: ('A' for Active; 'I' for Inactive)
REMARK    1  A    between atoms: O_1  and  C_8 
REMARK    2  A    between atoms: O_2  and  C_11 
REMARK    3  A    between atoms: O_3  and  C_13 
REMARK    4  A    between atoms: C_6  and  C_7 
REMARK    5  A    between atoms: C_6  and  C_8 
REMARK    6  A    between atoms: C_8  and  C_14 
ROOT
HETATM    1  O   UNL     1      15.700   5.062  10.990  1.00  0.00    -0.385 OA
HETATM    2  H   UNL     1      16.072   4.299  11.458  1.00  0.00     0.210 HD
ENDROOT
BRANCH   1   3
HETATM    3  C   UNL     1      14.301   5.134  11.236  1.00  0.00     0.223 C 
BRANCH   3   4
HETATM    4  C   UNL     1      13.928   6.600  11.514  1.00  0.00     0.081 C 
BRANCH   4   5
HETATM    5  C   UNL     1      13.210   6.775  12.808  1.00  0.00    -0.052 A 
HETATM    6  C   UNL     1      13.516   5.953  13.893  1.00  0.00     0.046 A 
HETATM    7  C   UNL     1      12.842   6.117  15.104  1.00  0.00     0.099 A 
HETATM    8  C   UNL     1      11.864   7.102  15.230  1.00  0.00     0.098 A 
HETATM    9  C   UNL     1      11.558   7.924  14.145  1.00  0.00     0.040 A 
HETATM   10  C   UNL     1      12.231   7.760  12.935  1.00  0.00     0.010 A 
BRANCH   7  11
HETATM   11  O   UNL     1      13.150   5.309  16.156  1.00  0.00    -0.358 OA
HETATM   12  H   UNL     1      12.629   5.332  16.933  1.00  0.00     0.217 HD
ENDBRANCH   7  11
BRANCH   8  13
HETATM   13  O   UNL     1      11.201   7.272  16.408  1.00  0.00    -0.358 OA
HETATM   14  H   UNL     1      11.526   6.873  17.191  1.00  0.00     0.217 HD
ENDBRANCH   8  13
ENDBRANCH   4   5
ENDBRANCH   3   4
BRANCH   3  15
HETATM   15  C   UNL     1      13.592   4.608  10.005  1.00  0.00     0.203 C 
HETATM   16  O   UNL     1      14.463   4.244   9.029  1.00  0.00    -0.646 OA
HETATM   17  O   UNL     1      12.378   4.529   9.878  1.00  0.00    -0.646 OA
ENDBRANCH   3  15
ENDBRANCH   1   3
TORSDOF 6
ENDMDL
MODEL 4
REMARK VINA RESULT:      -6.0      2.731      4.045
REMARK  6 active torsions:
REMARK  status: ('A' for Active; 'I' for Inactive)
REMARK    1  A    between atoms: O_1  and  C_8 
REMARK    2  A    between atoms: O_2  and  C_11 
REMARK    3  A    between atoms: O_3  and  C_13 
REMARK    4  A    between atoms: C_6  and  C_7 
REMARK    5  A    between atoms: C_6  and  C_8 
REMARK    6  A    between atoms: C_8  and  C_14 
ROOT
HETATM    1  O   UNL     1      11.668   5.723  14.802  1.00  0.00    -0.385 OA
HETATM    2  H   UNL     1      12.020   5.999  15.663  1.00  0.00     0.210 HD
ENDROOT
BRANCH   1   3
HETATM    3  C   UNL     1      12.583   6.092  13.776  1.00  0.00     0.223 C 
BRANCH   3   4
HETATM    4  C   UNL     1      13.213   4.813  13.201  1.00  0.00     0.081 C 
BRANCH   4   5
HETATM    5  C   UNL     1      14.386   5.093  12.326  1.00  0.00    -0.052 A 
HETATM    6  C   UNL     1      15.596   5.499  12.889  1.00  0.00     0.046 A 
HETATM    7  C   UNL     1      16.694   5.763  12.070  1.00  0.00     0.099 A 
HETATM    8  C   UNL     1      16.582   5.620  10.687  1.00  0.00     0.098 A 
HETATM    9  C   UNL     1      15.372   5.215  10.123  1.00  0.00     0.040 A 
HETATM   10  C   UNL     1      14.274   4.952  10.942  1.00  0.00     0.010 A 
BRANCH   7  11
HETATM   11  O   UNL     1      17.869   6.157  12.632  1.00  0.00    -0.358 OA
HETATM   12  H   UNL     1      18.079   7.068  12.688  1.00  0.00     0.217 HD
ENDBRANCH   7  11
BRANCH   8  13
HETATM   13  O   UNL     1      17.647   5.873   9.877  1.00  0.00    -0.358 OA
HETATM   14  H   UNL     1      17.591   5.694   8.959  1.00  0.00     0.217 HD
ENDBRANCH   8  13
ENDBRANCH   4   5
ENDBRANCH   3   4
BRANCH   3  15
HETATM   15  C   UNL     1      11.803   6.848  12.720  1.00  0.00     0.203 C 
HETATM   16  O   UNL     1      11.887   8.192  12.886  1.00  0.00    -0.646 OA
HETATM   17  O   UNL     1      11.153   6.326  11.824  1.00  0.00    -0.646 OA
ENDBRANCH   3  15
ENDBRANCH   1   3
TORSDOF 6
ENDMDL
MODEL 5
REMARK VINA RESULT:      -5.9      3.183      4.536
REMARK  6 active torsions:
REMARK  status: ('A' for Active; 'I' for Inactive)
REMARK    1  A    between atoms: O_1  and  C_8 
REMARK    2  A    between atoms: O_2  and  C_11 
REMARK    3  A    between atoms: O_3  and  C_13 
REMARK    4  A    between atoms: C_6  and  C_7 
REMARK    5  A    between atoms: C_6  and  C_8 
REMARK    6  A    between atoms: C_8  and  C_14 
ROOT
HETATM    1  O   UNL     1      11.513   5.940  15.267  1.00  0.00    -0.385 OA
HETATM    2  H   UNL     1      10.919   5.271  14.893  1.00  0.00     0.210 HD
ENDROOT
BRANCH   1   3
HETATM    3  C   UNL     1      12.619   6.135  14.393  1.00  0.00     0.223 C 
BRANCH   3   4
HETATM    4  C   UNL     1      12.813   4.858  13.559  1.00  0.00     0.081 C 
BRANCH   4   5
HETATM    5  C   UNL     1      13.868   5.007  12.517  1.00  0.00    -0.052 A 
HETATM    6  C   UNL     1      13.557   4.794  11.174  1.00  0.00     0.046 A 
HETATM    7  C   UNL     1      14.545   4.933  10.199  1.00  0.00     0.099 A 
HETATM    8  C   UNL     1      15.843   5.284  10.567  1.00  0.00     0.098 A 
HETATM    9  C   UNL     1      16.155   5.496  11.910  1.00  0.00     0.040 A 
HETATM   10  C   UNL     1      15.167   5.357  12.885  1.00  0.00     0.010 A 
BRANCH   7  11
HETATM   11  O   UNL     1      14.229   4.724   8.891  1.00  0.00    -0.358 OA
HETATM   12  H   UNL     1      14.812   5.010   8.217  1.00  0.00     0.217 HD
ENDBRANCH   7  11
BRANCH   8  13
HETATM   13  O   UNL     1      16.816   5.424   9.623  1.00  0.00    -0.358 OA
HETATM   14  H   UNL     1      16.591   5.688   8.753  1.00  0.00     0.217 HD
ENDBRANCH   8  13
ENDBRANCH   4   5
ENDBRANCH   3   4
BRANCH   3  15
HETATM   15  C   UNL     1      12.301   7.326  13.513  1.00  0.00     0.203 C 
HETATM   16  O   UNL     1      13.006   8.430  13.871  1.00  0.00    -0.646 OA
HETATM   17  O   UNL     1      11.493   7.321  12.594  1.00  0.00    -0.646 OA
ENDBRANCH   3  15
ENDBRANCH   1   3
TORSDOF 6
ENDMDL
MODEL 6
REMARK VINA RESULT:      -5.9      3.163      4.223
REMARK  6 active torsions:
REMARK  status: ('A' for Active; 'I' for Inactive)
REMARK    1  A    between atoms: O_1  and  C_8 
REMARK    2  A    between atoms: O_2  and  C_11 
REMARK    3  A    between atoms: O_3  and  C_13 
REMARK    4  A    between atoms: C_6  and  C_7 
REMARK    5  A    between atoms: C_6  and  C_8 
REMARK    6  A    between atoms: C_8  and  C_14 
ROOT
HETATM    1  O   UNL     1      15.777   5.285   9.621  1.00  0.00    -0.385 OA
HETATM    2  H   UNL     1      15.524   5.962   8.974  1.00  0.00     0.210 HD
ENDROOT
BRANCH   1   3
HETATM    3  C   UNL     1      14.632   4.889  10.366  1.00  0.00     0.223 C 
BRANCH   3   4
HETATM    4  C   UNL     1      14.118   6.104  11.156  1.00  0.00     0.081 C 
BRANCH   4   5
HETATM    5  C   UNL     1      13.943   5.815  12.607  1.00  0.00    -0.052 A 
HETATM    6  C   UNL     1      12.713   6.051  13.222  1.00  0.00     0.046 A 
HETATM    7  C   UNL     1      12.549   5.781  14.581  1.00  0.00     0.099 A 
HETATM    8  C   UNL     1      13.615   5.274  15.324  1.00  0.00     0.098 A 
HETATM    9  C   UNL     1      14.845   5.038  14.709  1.00  0.00     0.040 A 
HETATM   10  C   UNL     1      15.009   5.308  13.351  1.00  0.00     0.010 A 
BRANCH   7  11
HETATM   11  O   UNL     1      11.344   6.015  15.169  1.00  0.00    -0.358 OA
HETATM   12  H   UNL     1      11.262   6.684  15.819  1.00  0.00     0.217 HD
ENDBRANCH   7  11
BRANCH   8  13
HETATM   13  O   UNL     1      13.466   5.004  16.651  1.00  0.00    -0.358 OA
HETATM   14  H   UNL     1      14.139   4.544  17.115  1.00  0.00     0.217 HD
ENDBRANCH   8  13
ENDBRANCH   4   5
ENDBRANCH   3   4
BRANCH   3  15
HETATM   15  C   UNL     1      13.594   4.392   9.380  1.00  0.00     0.203 C 
HETATM   16  O   UNL     1      12.328   4.558   9.841  1.00  0.00    -0.646 OA
HETATM   17  O   UNL     1      13.847   3.881   8.297  1.00  0.00    -0.646 OA
ENDBRANCH   3  15
ENDBRANCH   1   3
TORSDOF 6
ENDMDL
MODEL 7
REMARK VINA RESULT:      -5.9      2.082      2.927
REMARK  6 active torsions:
REMARK  status: ('A' for Active; 'I' for Inactive)
REMARK    1  A    between atoms: O_1  and  C_8 
REMARK    2  A    between atoms: O_2  and  C_11 
REMARK    3  A    between atoms: O_3  and  C_13 
REMARK    4  A    between atoms: C_6  and  C_7 
REMARK    5  A    between atoms: C_6  and  C_8 
REMARK    6  A    between atoms: C_8  and  C_14 
ROOT
HETATM    1  O   UNL     1      11.908   3.828  12.279  1.00  0.00    -0.385 OA
HETATM    2  H   UNL     1      11.678   3.661  11.352  1.00  0.00     0.210 HD
ENDROOT
BRANCH   1   3
HETATM    3  C   UNL     1      12.880   4.864  12.347  1.00  0.00     0.223 C 
BRANCH   3   4
HETATM    4  C   UNL     1      13.819   4.732  11.136  1.00  0.00     0.081 C 
BRANCH   4   5
HETATM    5  C   UNL     1      15.204   5.199  11.429  1.00  0.00    -0.052 A 
HETATM    6  C   UNL     1      16.089   5.458  10.383  1.00  0.00     0.046 A 
HETATM    7  C   UNL     1      17.385   5.895  10.657  1.00  0.00     0.099 A 
HETATM    8  C   UNL     1      17.796   6.073  11.978  1.00  0.00     0.098 A 
HETATM    9  C   UNL     1      16.911   5.814  13.025  1.00  0.00     0.040 A 
HETATM   10  C   UNL     1      15.615   5.377  12.750  1.00  0.00     0.010 A 
BRANCH   7  11
HETATM   11  O   UNL     1      18.239   6.146   9.627  1.00  0.00    -0.358 OA
HETATM   12  H   UNL     1      18.286   7.004   9.255  1.00  0.00     0.217 HD
ENDBRANCH   7  11
BRANCH   8  13
HETATM   13  O   UNL     1      19.059   6.501  12.258  1.00  0.00    -0.358 OA
HETATM   14  H   UNL     1      19.793   6.106  11.831  1.00  0.00     0.217 HD
ENDBRANCH   8  13
ENDBRANCH   4   5
ENDBRANCH   3   4
BRANCH   3  15
HETATM   15  C   UNL     1      12.141   6.186  12.331  1.00  0.00     0.203 C 
HETATM   16  O   UNL     1      11.035   6.145  11.545  1.00  0.00    -0.646 OA
HETATM   17  O   UNL     1      12.493   7.191  12.935  1.00  0.00    -0.646 OA
ENDBRANCH   3  15
ENDBRANCH   1   3
TORSDOF 6
ENDMDL
MODEL 8
REMARK VINA RESULT:      -5.8      2.160      5.274
REMARK  6 active torsions:
REMARK  status: ('A' for Active; 'I' for Inactive)
REMARK    1  A    between atoms: O_1  and  C_8 
REMARK    2  A    between atoms: O_2  and  C_11 
REMARK    3  A    between atoms: O_3  and  C_13 
REMARK    4  A    between atoms: C_6  and  C_7 
REMARK    5  A    between atoms: C_6  and  C_8 
REMARK    6  A    between atoms: C_8  and  C_14 
ROOT
HETATM    1  O   UNL     1      18.041   6.603   9.710  1.00  0.00    -0.385 OA
HETATM    2  H   UNL     1      18.512   7.448   9.774  1.00  0.00     0.210 HD
ENDROOT
BRANCH   1   3
HETATM    3  C   UNL     1      17.282   6.391  10.895  1.00  0.00     0.223 C 
BRANCH   3   4
HETATM    4  C   UNL     1      16.169   5.376  10.588  1.00  0.00     0.081 C 
BRANCH   4   5
HETATM    5  C   UNL     1      14.876   5.727  11.241  1.00  0.00    -0.052 A 
HETATM    6  C   UNL     1      13.771   4.888  11.095  1.00  0.00     0.046 A 
HETATM    7  C   UNL     1      12.560   5.216  11.705  1.00  0.00     0.099 A 
HETATM    8  C   UNL     1      12.455   6.384  12.461  1.00  0.00     0.098 A 
HETATM    9  C   UNL     1      13.559   7.223  12.606  1.00  0.00     0.040 A 
HETATM   10  C   UNL     1      14.769   6.895  11.996  1.00  0.00     0.010 A 
BRANCH   7  11
HETATM   11  O   UNL     1      11.489   4.389  11.556  1.00  0.00    -0.358 OA
HETATM   12  H   UNL     1      11.024   4.367  10.744  1.00  0.00     0.217 HD
ENDBRANCH   7  11
BRANCH   8  13
HETATM   13  O   UNL     1      11.278   6.714  13.063  1.00  0.00    -0.358 OA
HETATM   14  H   UNL     1      11.269   7.331  13.768  1.00  0.00     0.217 HD
ENDBRANCH   8  13
ENDBRANCH   4   5
ENDBRANCH   3   4
BRANCH   3  15
HETATM   15  C   UNL     1      18.229   5.869  11.956  1.00  0.00     0.203 C 
HETATM   16  O   UNL     1      19.499   5.746  11.493  1.00  0.00    -0.646 OA
HETATM   17  O   UNL     1      17.904   5.571  13.098  1.00  0.00    -0.646 OA
ENDBRANCH   3  15
ENDBRANCH   1   3
TORSDOF 6
ENDMDL
MODEL 9
REMARK VINA RESULT:      -5.8      1.477      5.351
REMARK  6 active torsions:
REMARK  status: ('A' for Active; 'I' for Inactive)
REMARK    1  A    between atoms: O_1  and  C_8 
REMARK    2  A    between atoms: O_2  and  C_11 
REMARK    3  A    between atoms: O_3  and  C_13 
REMARK    4  A    between atoms: C_6  and  C_7 
REMARK    5  A    between atoms: C_6  and  C_8 
REMARK    6  A    between atoms: C_8  and  C_14 
ROOT
HETATM    1  O   UNL     1      17.434   7.319  12.697  1.00  0.00    -0.385 OA
HETATM    2  H   UNL     1      17.357   7.872  11.905  1.00  0.00     0.210 HD
ENDROOT
BRANCH   1   3
HETATM    3  C   UNL     1      17.604   5.960  12.313  1.00  0.00     0.223 C 
BRANCH   3   4
HETATM    4  C   UNL     1      16.871   5.735  10.979  1.00  0.00     0.081 C 
BRANCH   4   5
HETATM    5  C   UNL     1      15.448   5.334  11.166  1.00  0.00    -0.052 A 
HETATM    6  C   UNL     1      14.638   5.098  10.055  1.00  0.00     0.046 A 
HETATM    7  C   UNL     1      13.305   4.724  10.231  1.00  0.00     0.099 A 
HETATM    8  C   UNL     1      12.783   4.586  11.516  1.00  0.00     0.098 A 
HETATM    9  C   UNL     1      13.593   4.823  12.627  1.00  0.00     0.040 A 
HETATM   10  C   UNL     1      14.925   5.197  12.452  1.00  0.00     0.010 A 
BRANCH   7  11
HETATM   11  O   UNL     1      12.525   4.495   9.138  1.00  0.00    -0.358 OA
HETATM   12  H   UNL     1      12.839   3.950   8.445  1.00  0.00     0.217 HD
ENDBRANCH   7  11
BRANCH   8  13
HETATM   13  O   UNL     1      11.484   4.220  11.700  1.00  0.00    -0.358 OA
HETATM   14  H   UNL     1      10.828   4.874  11.842  1.00  0.00     0.217 HD
ENDBRANCH   8  13
ENDBRANCH   4   5
ENDBRANCH   3   4
BRANCH   3  15
HETATM   15  C   UNL     1      19.091   5.707  12.176  1.00  0.00     0.203 C 
HETATM   16  O   UNL     1      19.586   4.986  13.214  1.00  0.00    -0.646 OA
HETATM   17  O   UNL     1      19.788   6.111  11.254  1.00  0.00    -0.646 OA
ENDBRANCH   3  15
ENDBRANCH   1   3
TORSDOF 6
ENDMDL
