MODEL 1
REMARK VINA RESULT:      -6.1      0.000      0.000
REMARK  6 active torsions:
REMARK  status: ('A' for Active; 'I' for Inactive)
REMARK    1  A    between atoms: O_1  and  C_8 
REMARK    2  A    between atoms: O_2  and  C_11 
REMARK    3  A    between atoms: O_3  and  C_13 
REMARK    4  A    between atoms: C_6  and  C_7 
REMARK    5  A    between atoms: C_6  and  C_8 
REMARK    6  A    between atoms: C_8  and  C_14 
ROOT
HETATM    1  O   UNL     1      10.116   5.795   8.552  1.00  0.00    -0.385 OA
HETATM    2  H   UNL     1      10.723   5.039   8.533  1.00  0.00     0.210 HD
ENDROOT
BRANCH   1   3
HETATM    3  C   UNL     1      10.820   6.976   8.185  1.00  0.00     0.223 C 
BRANCH   3   4
HETATM    4  C   UNL     1      12.032   7.132   9.118  1.00  0.00     0.081 C 
BRANCH   4   5
HETATM    5  C   UNL     1      11.643   7.487  10.512  1.00  0.00    -0.052 A 
HETATM    6  C   UNL     1      12.000   6.652  11.571  1.00  0.00     0.046 A 
HETATM    7  C   UNL     1      11.634   6.984  12.876  1.00  0.00     0.099 A 
HETATM    8  C   UNL     1      10.912   8.151  13.122  1.00  0.00     0.098 A 
HETATM    9  C   UNL     1      10.554   8.986  12.063  1.00  0.00     0.040 A 
HETATM   10  C   UNL     1      10.920   8.654  10.759  1.00  0.00     0.010 A 
BRANCH   7  11
HETATM   11  O   UNL     1      11.989   6.161  13.901  1.00  0.00    -0.358 OA
HETATM   12  H   UNL     1      12.619   6.445  14.533  1.00  0.00     0.217 HD
ENDBRANCH   7  11
BRANCH   8  13
HETATM   13  O   UNL     1      10.551   8.487  14.392  1.00  0.00    -0.358 OA
HETATM   14  H   UNL     1       9.649   8.457  14.646  1.00  0.00     0.217 HD
ENDBRANCH   8  13
ENDBRANCH   4   5
ENDBRANCH   3   4
BRANCH   3  15
HETATM   15  C   UNL     1      11.251   6.821   6.741  1.00  0.00     0.203 C 
HETATM   16  O   UNL     1      12.600   6.731   6.616  1.00  0.00    -0.646 OA
HETATM   17  O   UNL     1      10.490   6.796   5.783  1.00  0.00    -0.646 OA
ENDBRANCH   3  15
ENDBRANCH   1   3
TORSDOF 6
ENDMDL
MODEL 2
REMARK VINA RESULT:      -6.1      3.783      4.713
REMARK  6 active torsions:
REMARK  status: ('A' for Active; 'I' for Inactive)
REMARK    1  A    between atoms: O_1  and  C_8 
REMARK    2  A    between atoms: O_2  and  C_11 
REMARK    3  A    between atoms: O_3  and  C_13 
REMARK    4  A    between atoms: C_6  and  C_7 
REMARK    5  A    between atoms: C_6  and  C_8 
REMARK    6  A    between atoms: C_8  and  C_14 
ROOT
HETATM    1  O   UNL     1      10.015   7.673   6.276  1.00  0.00    -0.385 OA
HETATM    2  H   UNL     1      10.234   8.348   5.614  1.00  0.00     0.210 HD
ENDROOT
BRANCH   1   3
HETATM    3  C   UNL     1      11.150   6.846   6.503  1.00  0.00     0.223 C 
BRANCH   3   4
HETATM    4  C   UNL     1      11.413   6.782   8.016  1.00  0.00     0.081 C 
BRANCH   4   5
HETATM    5  C   UNL     1      12.862   6.885   8.352  1.00  0.00    -0.052 A 
HETATM    6  C   UNL     1      13.791   7.175   7.353  1.00  0.00     0.046 A 
HETATM    7  C   UNL     1      15.147   7.270   7.667  1.00  0.00     0.099 A 
HETATM    8  C   UNL     1      15.573   7.076   8.981  1.00  0.00     0.098 A 
HETATM    9  C   UNL     1      14.644   6.786   9.980  1.00  0.00     0.040 A 
HETATM   10  C   UNL     1      13.289   6.690   9.666  1.00  0.00     0.010 A 
BRANCH   7  11
HETATM   11  O   UNL     1      16.044   7.554   6.683  1.00  0.00    -0.358 OA
HETATM   12  H   UNL     1      16.767   6.980   6.528  1.00  0.00     0.217 HD
ENDBRANCH   7  11
BRANCH   8  13
HETATM   13  O   UNL     1      16.894   7.168   9.300  1.00  0.00    -0.358 OA
HETATM   14  H   UNL     1      17.226   7.946   9.705  1.00  0.00     0.217 HD
ENDBRANCH   8  13
ENDBRANCH   4   5
ENDBRANCH   3   4
BRANCH   3  15
HETATM   15  C   UNL     1      10.836   5.476   5.938  1.00  0.00     0.203 C 
HETATM   16  O   UNL     1      11.356   5.302   4.697  1.00  0.00    -0.646 OA
HETATM   17  O   UNL     1      10.176   4.618   6.511  1.00  0.00    -0.646 OA
ENDBRANCH   3  15
ENDBRANCH   1   3
TORSDOF 6
ENDMDL
MODEL 3
REMARK VINA RESULT:      -6.0      2.461      5.046
REMARK  6 active torsions:
REMARK  status: ('A' for Active; 'I' for Inactive)
REMARK    1  A    between atoms: O_1  and  C_8 
REMARK    2  A    between atoms: O_2  and  C_11 
REMARK    3  A    between atoms: O_3  and  C_13 
REMARK    4  A    between atoms: C_6  and  C_7 
REMARK    5  A    between atoms: C_6  and  C_8 
REMARK    6  A    between atoms: C_8  and  C_14 
ROOT
HETATM    1  O   UNL     1      10.381   7.175  12.655  1.00  0.00    -0.385 OA
HETATM    2  H   UNL     1       9.978   6.322  12.429  1.00  0.00     0.210 HD
ENDROOT
BRANCH   1   3
HETATM    3  C   UNL     1      11.202   7.613  11.579  1.00  0.00     0.223 C 
BRANCH   3   4
HETATM    4  C   UNL     1      11.377   6.446  10.593  1.00  0.00     0.081 C 
BRANCH   4   5
HETATM    5  C   UNL     1      12.468   6.686   9.607  1.00  0.00    -0.052 A 
HETATM    6  C   UNL     1      13.795   6.737  10.033  1.00  0.00     0.046 A 
HETATM    7  C   UNL     1      14.817   6.962   9.110  1.00  0.00     0.099 A 
HETATM    8  C   UNL     1      14.510   7.136   7.760  1.00  0.00     0.098 A 
HETATM    9  C   UNL     1      13.183   7.086   7.334  1.00  0.00     0.040 A 
HETATM   10  C   UNL     1      12.162   6.861   8.257  1.00  0.00     0.010 A 
BRANCH   7  11
HETATM   11  O   UNL     1      16.108   7.009   9.538  1.00  0.00    -0.358 OA
HETATM   12  H   UNL     1      16.462   6.299  10.036  1.00  0.00     0.217 HD
ENDBRANCH   7  11
BRANCH   8  13
HETATM   13  O   UNL     1      15.499   7.355   6.849  1.00  0.00    -0.358 OA
HETATM   14  H   UNL     1      15.816   6.649   6.321  1.00  0.00     0.217 HD
ENDBRANCH   8  13
ENDBRANCH   4   5
ENDBRANCH   3   4
BRANCH   3  15
HETATM   15  C   UNL     1      10.509   8.790  10.925  1.00  0.00     0.203 C 
HETATM   16  O   UNL     1       9.562   8.397  10.034  1.00  0.00    -0.646 OA
HETATM   17  O   UNL     1      10.769   9.965  11.145  1.00  0.00    -0.646 OA
ENDBRANCH   3  15
ENDBRANCH   1   3
TORSDOF 6
ENDMDL
MODEL 4
REMARK VINA RESULT:      -6.0      0.891      1.389
REMARK  6 active torsions:
REMARK  status: ('A' for Active; 'I' for Inactive)
REMARK    1  A    between atoms: O_1  and  C_8 
REMARK    2  A    between atoms: O_2  and  C_11 
REMARK    3  A    between atoms: O_3  and  C_13 
REMARK    4  A    between atoms: C_6  and  C_7 
REMARK    5  A    between atoms: C_6  and  C_8 
REMARK    6  A    between atoms: C_8  and  C_14 
ROOT
HETATM    1  O   UNL     1      13.697   6.835   7.790  1.00  0.00    -0.385 OA
HETATM    2  H   UNL     1      14.073   7.715   7.632  1.00  0.00     0.210 HD
ENDROOT
BRANCH   1   3
HETATM    3  C   UNL     1      12.460   6.966   8.480  1.00  0.00     0.223 C 
BRANCH   3   4
HETATM    4  C   UNL     1      12.396   8.368   9.107  1.00  0.00     0.081 C 
BRANCH   4   5
HETATM    5  C   UNL     1      11.857   8.353  10.496  1.00  0.00    -0.052 A 
HETATM    6  C   UNL     1      12.022   7.222  11.296  1.00  0.00     0.046 A 
HETATM    7  C   UNL     1      11.517   7.207  12.597  1.00  0.00     0.099 A 
HETATM    8  C   UNL     1      10.847   8.323  13.096  1.00  0.00     0.098 A 
HETATM    9  C   UNL     1      10.680   9.454  12.296  1.00  0.00     0.040 A 
HETATM   10  C   UNL     1      11.185   9.469  10.996  1.00  0.00     0.010 A 
BRANCH   7  11
HETATM   11  O   UNL     1      11.686   6.098  13.368  1.00  0.00    -0.358 OA
HETATM   12  H   UNL     1      11.188   5.994  14.154  1.00  0.00     0.217 HD
ENDBRANCH   7  11
BRANCH   8  13
HETATM   13  O   UNL     1      10.350   8.321  14.365  1.00  0.00    -0.358 OA
HETATM   14  H   UNL     1       9.746   7.656  14.631  1.00  0.00     0.217 HD
ENDBRANCH   8  13
ENDBRANCH   4   5
ENDBRANCH   3   4
BRANCH   3  15
HETATM   15  C   UNL     1      11.350   6.761   7.469  1.00  0.00     0.203 C 
HETATM   16  O   UNL     1      11.828   6.414   6.246  1.00  0.00    -0.646 OA
HETATM   17  O   UNL     1      10.157   6.905   7.701  1.00  0.00    -0.646 OA
ENDBRANCH   3  15
ENDBRANCH   1   3
TORSDOF 6
ENDMDL
MODEL 5
REMARK VINA RESULT:      -5.9      1.123      2.273
REMARK  6 active torsions:
REMARK  status: ('A' for Active; 'I' for Inactive)
REMARK    1  A    between atoms: O_1  and  C_8 
REMARK    2  A    between atoms: O_2  and  C_11 
REMARK    3  A    between atoms: O_3  and  C_13 
REMARK    4  A    between atoms: C_6  and  C_7 
REMARK    5  A    between atoms: C_6  and  C_8 
REMARK    6  A    between atoms: C_8  and  C_14 
ROOT
HETATM    1  O   UNL     1      13.508   6.869   6.587  1.00  0.00    -0.385 OA
HETATM    2  H   UNL     1      13.198   6.660   5.692  1.00  0.00     0.210 HD
ENDROOT
BRANCH   1   3
HETATM    3  C   UNL     1      12.426   6.750   7.503  1.00  0.00     0.223 C 
BRANCH   3   4
HETATM    4  C   UNL     1      12.410   7.997   8.403  1.00  0.00     0.081 C 
BRANCH   4   5
HETATM    5  C   UNL     1      12.216   7.663   9.843  1.00  0.00    -0.052 A 
HETATM    6  C   UNL     1      11.186   8.267  10.566  1.00  0.00     0.046 A 
HETATM    7  C   UNL     1      11.005   7.955  11.914  1.00  0.00     0.099 A 
HETATM    8  C   UNL     1      11.853   7.040  12.538  1.00  0.00     0.098 A 
HETATM    9  C   UNL     1      12.882   6.438  11.815  1.00  0.00     0.040 A 
HETATM   10  C   UNL     1      13.064   6.749  10.468  1.00  0.00     0.010 A 
BRANCH   7  11
HETATM   11  O   UNL     1       9.996   8.550  12.609  1.00  0.00    -0.358 OA
HETATM   12  H   UNL     1       9.461   8.041  13.184  1.00  0.00     0.217 HD
ENDBRANCH   7  11
BRANCH   8  13
HETATM   13  O   UNL     1      11.684   6.727  13.853  1.00  0.00    -0.358 OA
HETATM   14  H   UNL     1      12.429   6.533  14.388  1.00  0.00     0.217 HD
ENDBRANCH   8  13
ENDBRANCH   4   5
ENDBRANCH   3   4
BRANCH   3  15
HETATM   15  C   UNL     1      11.151   6.637   6.692  1.00  0.00     0.203 C 
HETATM   16  O   UNL     1      11.385   6.196   5.430  1.00  0.00    -0.646 OA
HETATM   17  O   UNL     1      10.034   6.923   7.103  1.00  0.00    -0.646 OA
ENDBRANCH   3  15
ENDBRANCH   1   3
TORSDOF 6
ENDMDL
MODEL 6
REMARK VINA RESULT:      -5.9      1.959      2.570
REMARK  6 active torsions:
REMARK  status: ('A' for Active; 'I' for Inactive)
REMARK    1  A    between atoms: O_1  and  C_8 
REMARK    2  A    between atoms: O_2  and  C_11 
REMARK    3  A    between atoms: O_3  and  C_13 
REMARK    4  A    between atoms: C_6  and  C_7 
REMARK    5  A    between atoms: C_6  and  C_8 
REMARK    6  A    between atoms: C_8  and  C_14 
ROOT
HETATM    1  O   UNL     1      13.432   6.911   6.623  1.00  0.00    -0.385 OA
HETATM    2  H   UNL     1      14.242   6.587   7.048  1.00  0.00     0.210 HD
ENDROOT
BRANCH   1   3
HETATM    3  C   UNL     1      12.303   6.520   7.395  1.00  0.00     0.223 C 
BRANCH   3   4
HETATM    4  C   UNL     1      12.132   7.520   8.550  1.00  0.00     0.081 C 
BRANCH   4   5
HETATM    5  C   UNL     1      12.155   6.862   9.887  1.00  0.00    -0.052 A 
HETATM    6  C   UNL     1      10.985   6.320  10.420  1.00  0.00     0.046 A 
HETATM    7  C   UNL     1      11.008   5.705  11.672  1.00  0.00     0.099 A 
HETATM    8  C   UNL     1      12.200   5.633  12.391  1.00  0.00     0.098 A 
HETATM    9  C   UNL     1      13.370   6.176  11.860  1.00  0.00     0.040 A 
HETATM   10  C   UNL     1      13.348   6.790  10.608  1.00  0.00     0.010 A 
BRANCH   7  11
HETATM   11  O   UNL     1       9.859   5.179  12.180  1.00  0.00    -0.358 OA
HETATM   12  H   UNL     1       9.039   5.356  11.764  1.00  0.00     0.217 HD
ENDBRANCH   7  11
BRANCH   8  13
HETATM   13  O   UNL     1      12.234   5.033  13.614  1.00  0.00    -0.358 OA
HETATM   14  H   UNL     1      11.464   4.624  13.958  1.00  0.00     0.217 HD
ENDBRANCH   8  13
ENDBRANCH   4   5
ENDBRANCH   3   4
BRANCH   3  15
HETATM   15  C   UNL     1      11.098   6.525   6.476  1.00  0.00     0.203 C 
HETATM   16  O   UNL     1       9.986   7.000   7.093  1.00  0.00    -0.646 OA
HETATM   17  O   UNL     1      11.101   6.134   5.317  1.00  0.00    -0.646 OA
ENDBRANCH   3  15
ENDBRANCH   1   3
TORSDOF 6
ENDMDL
MODEL 7
REMARK VINA RESULT:      -5.9      1.845      5.330
REMARK  6 active torsions:
REMARK  status: ('A' for Active; 'I' for Inactive)
REMARK    1  A    between atoms: O_1  and  C_8 
REMARK    2  A    between atoms: O_2  and  C_11 
REMARK    3  A    between atoms: O_3  and  C_13 
REMARK    4  A    between atoms: C_6  and  C_7 
REMARK    5  A    between atoms: C_6  and  C_8 
REMARK    6  A    between atoms: C_8  and  C_14 
ROOT
HETATM    1  O   UNL     1      10.422   7.343  13.270  1.00  0.00    -0.385 OA
HETATM    2  H   UNL     1      10.629   7.945  14.002  1.00  0.00     0.210 HD
ENDROOT
BRANCH   1   3
HETATM    3  C   UNL     1      11.293   7.608  12.177  1.00  0.00     0.223 C 
BRANCH   3   4
HETATM    4  C   UNL     1      11.108   6.502  11.126  1.00  0.00     0.081 C 
BRANCH   4   5
HETATM    5  C   UNL     1      12.007   6.671   9.949  1.00  0.00    -0.052 A 
HETATM    6  C   UNL     1      11.466   6.785   8.668  1.00  0.00     0.046 A 
HETATM    7  C   UNL     1      12.308   6.942   7.567  1.00  0.00     0.099 A 
HETATM    8  C   UNL     1      13.691   6.986   7.747  1.00  0.00     0.098 A 
HETATM    9  C   UNL     1      14.231   6.872   9.028  1.00  0.00     0.040 A 
HETATM   10  C   UNL     1      13.390   6.715  10.129  1.00  0.00     0.010 A 
BRANCH   7  11
HETATM   11  O   UNL     1      11.769   7.053   6.322  1.00  0.00    -0.358 OA
HETATM   12  H   UNL     1      11.421   7.873   6.033  1.00  0.00     0.217 HD
ENDBRANCH   7  11
BRANCH   8  13
HETATM   13  O   UNL     1      14.523   7.141   6.679  1.00  0.00    -0.358 OA
HETATM   14  H   UNL     1      15.177   6.495   6.497  1.00  0.00     0.217 HD
ENDBRANCH   8  13
ENDBRANCH   4   5
ENDBRANCH   3   4
BRANCH   3  15
HETATM   15  C   UNL     1      10.925   8.968  11.620  1.00  0.00     0.203 C 
HETATM   16  O   UNL     1      11.586   9.975  12.247  1.00  0.00    -0.646 OA
HETATM   17  O   UNL     1      10.116   9.160  10.722  1.00  0.00    -0.646 OA
ENDBRANCH   3  15
ENDBRANCH   1   3
TORSDOF 6
ENDMDL
MODEL 8
REMARK VINA RESULT:      -5.7      1.782      2.324
REMARK  6 active torsions:
REMARK  status: ('A' for Active; 'I' for Inactive)
REMARK    1  A    between atoms: O_1  and  C_8 
REMARK    2  A    between atoms: O_2  and  C_11 
REMARK    3  A    between atoms: O_3  and  C_13 
REMARK    4  A    between atoms: C_6  and  C_7 
REMARK    5  A    between atoms: C_6  and  C_8 
REMARK    6  A    between atoms: C_8  and  C_14 
ROOT
HETATM    1  O   UNL     1      12.961   8.842   7.289  1.00  0.00    -0.385 OA
HETATM    2  H   UNL     1      13.766   9.312   7.022  1.00  0.00     0.210 HD
ENDROOT
BRANCH   1   3
HETATM    3  C   UNL     1      13.163   8.241   8.562  1.00  0.00     0.223 C 
BRANCH   3   4
HETATM    4  C   UNL     1      11.860   7.543   8.986  1.00  0.00     0.081 C 
BRANCH   4   5
HETATM    5  C   UNL     1      11.519   7.782  10.417  1.00  0.00    -0.052 A 
HETATM    6  C   UNL     1      11.883   6.848  11.386  1.00  0.00     0.046 A 
HETATM    7  C   UNL     1      11.563   7.071  12.726  1.00  0.00     0.099 A 
HETATM    8  C   UNL     1      10.878   8.229  13.095  1.00  0.00     0.098 A 
HETATM    9  C   UNL     1      10.513   9.163  12.125  1.00  0.00     0.040 A 
HETATM   10  C   UNL     1      10.833   8.939  10.786  1.00  0.00     0.010 A 
BRANCH   7  11
HETATM   11  O   UNL     1      11.925   6.152  13.663  1.00  0.00    -0.358 OA
HETATM   12  H   UNL     1      12.345   5.357  13.401  1.00  0.00     0.217 HD
ENDBRANCH   7  11
BRANCH   8  13
HETATM   13  O   UNL     1      10.562   8.458  14.400  1.00  0.00    -0.358 OA
HETATM   14  H   UNL     1       9.670   8.612  14.646  1.00  0.00     0.217 HD
ENDBRANCH   8  13
ENDBRANCH   4   5
ENDBRANCH   3   4
BRANCH   3  15
HETATM   15  C   UNL     1      14.301   7.250   8.424  1.00  0.00     0.203 C 
HETATM   16  O   UNL     1      14.597   6.987   7.126  1.00  0.00    -0.646 OA
HETATM   17  O   UNL     1      14.886   6.723   9.361  1.00  0.00    -0.646 OA
ENDBRANCH   3  15
ENDBRANCH   1   3
TORSDOF 6
ENDMDL
MODEL 9
REMARK VINA RESULT:      -5.7      1.675      2.020
REMARK  6 active torsions:
REMARK  status: ('A' for Active; 'I' for Inactive)
REMARK    1  A    between atoms: O_1  and  C_8 
REMARK    2  A    between atoms: O_2  and  C_11 
REMARK    3  A    between atoms: O_3  and  C_13 
REMARK    4  A    between atoms: C_6  and  C_7 
REMARK    5  A    between atoms: C_6  and  C_8 
REMARK    6  A    between atoms: C_8  and  C_14 
ROOT
HETATM    1  O   UNL     1       9.913   5.378   8.286  1.00  0.00    -0.385 OA
HETATM    2  H   UNL     1       8.961   5.533   8.388  1.00  0.00     0.210 HD
ENDROOT
BRANCH   1   3
HETATM    3  C   UNL     1      10.538   6.563   7.808  1.00  0.00     0.223 C 
BRANCH   3   4
HETATM    4  C   UNL     1      11.933   6.671   8.446  1.00  0.00     0.081 C 
BRANCH   4   5
HETATM    5  C   UNL     1      11.954   7.575   9.630  1.00  0.00    -0.052 A 
HETATM    6  C   UNL     1      10.834   7.670  10.456  1.00  0.00     0.046 A 
HETATM    7  C   UNL     1      10.854   8.518  11.565  1.00  0.00     0.099 A 
HETATM    8  C   UNL     1      11.994   9.269  11.847  1.00  0.00     0.098 A 
HETATM    9  C   UNL     1      13.114   9.175  11.020  1.00  0.00     0.040 A 
HETATM   10  C   UNL     1      13.094   8.329   9.912  1.00  0.00     0.010 A 
BRANCH   7  11
HETATM   11  O   UNL     1       9.755   8.601  12.364  1.00  0.00    -0.358 OA
HETATM   12  H   UNL     1       9.746   8.169  13.195  1.00  0.00     0.217 HD
ENDBRANCH   7  11
BRANCH   8  13
HETATM   13  O   UNL     1      12.026  10.099  12.927  1.00  0.00    -0.358 OA
HETATM   14  H   UNL     1      12.841  10.288  13.349  1.00  0.00     0.217 HD
ENDBRANCH   8  13
ENDBRANCH   4   5
ENDBRANCH   3   4
BRANCH   3  15
HETATM   15  C   UNL     1      10.627   6.456   6.299  1.00  0.00     0.203 C 
HETATM   16  O   UNL     1      10.453   7.656   5.689  1.00  0.00    -0.646 OA
HETATM   17  O   UNL     1      10.816   5.416   5.682  1.00  0.00    -0.646 OA
ENDBRANCH   3  15
ENDBRANCH   1   3
TORSDOF 6
ENDMDL
