MODEL 1
REMARK VINA RESULT:      -6.3      0.000      0.000
REMARK  6 active torsions:
REMARK  status: ('A' for Active; 'I' for Inactive)
REMARK    1  A    between atoms: O_1  and  C_5 
REMARK    2  A    between atoms: O_2  and  C_7 
REMARK    3  A    between atoms: O_2  and  C_13 
REMARK    4  A    between atoms: C_4  and  C_5 
REMARK    5  A    between atoms: C_4  and  C_6 
REMARK    6  A    between atoms: C_5  and  C_7 
ROOT
HETATM    1  O   UNL     1      11.649   6.687  13.327  1.00  0.00    -0.385 OA
HETATM    2  H   UNL     1      11.508   7.643  13.247  1.00  0.00     0.210 HD
ENDROOT
BRANCH   1   3
HETATM    3  C   UNL     1      12.650   6.277  12.404  1.00  0.00     0.221 C 
BRANCH   3   4
HETATM    4  C   UNL     1      13.862   5.766  13.187  1.00  0.00     0.080 C 
BRANCH   4   5
HETATM    5  C   UNL     1      15.146   5.916  12.408  1.00  0.00    -0.055 A 
HETATM    6  C   UNL     1      15.114   6.514  11.157  1.00  0.00     0.007 A 
HETATM    7  C   UNL     1      16.301   6.653  10.436  1.00  0.00     0.001 A 
HETATM    8  C   UNL     1      17.502   6.191  10.975  1.00  0.00     0.000 A 
HETATM    9  C   UNL     1      17.518   5.592  12.234  1.00  0.00     0.001 A 
HETATM   10  C   UNL     1      16.332   5.453  12.955  1.00  0.00     0.007 A 
ENDBRANCH   4   5
ENDBRANCH   3   4
BRANCH   3  11
HETATM   11  C   UNL     1      12.061   5.176  11.544  1.00  0.00     0.288 C 
HETATM   12  O   UNL     1      11.963   4.005  11.884  1.00  0.00    -0.262 OA
BRANCH  11  13
HETATM   13  O   UNL     1      11.638   5.701  10.356  1.00  0.00    -0.320 OA
BRANCH  13  14
HETATM   14  C   UNL     1      12.276   5.174   9.187  1.00  0.00     0.174 C 
HETATM   15  C   UNL     1      12.368   6.266   8.142  1.00  0.00     0.034 C 
ENDBRANCH  13  14
ENDBRANCH  11  13
ENDBRANCH   3  11
ENDBRANCH   1   3
TORSDOF 6
ENDMDL
MODEL 2
REMARK VINA RESULT:      -6.3      3.151      5.498
REMARK  6 active torsions:
REMARK  status: ('A' for Active; 'I' for Inactive)
REMARK    1  A    between atoms: O_1  and  C_5 
REMARK    2  A    between atoms: O_2  and  C_7 
REMARK    3  A    between atoms: O_2  and  C_13 
REMARK    4  A    between atoms: C_4  and  C_5 
REMARK    5  A    between atoms: C_4  and  C_6 
REMARK    6  A    between atoms: C_5  and  C_7 
ROOT
HETATM    1  O   UNL     1      16.834   8.148   9.945  1.00  0.00    -0.385 OA
HETATM    2  H   UNL     1      16.587   8.829  10.590  1.00  0.00     0.210 HD
ENDROOT
BRANCH   1   3
HETATM    3  C   UNL     1      16.782   6.869  10.564  1.00  0.00     0.221 C 
BRANCH   3   4
HETATM    4  C   UNL     1      15.540   6.129  10.063  1.00  0.00     0.080 C 
BRANCH   4   5
HETATM    5  C   UNL     1      14.400   6.202  11.049  1.00  0.00    -0.055 A 
HETATM    6  C   UNL     1      14.676   6.412  12.392  1.00  0.00     0.007 A 
HETATM    7  C   UNL     1      13.622   6.479  13.304  1.00  0.00     0.001 A 
HETATM    8  C   UNL     1      12.307   6.335  12.861  1.00  0.00     0.000 A 
HETATM    9  C   UNL     1      12.045   6.125  11.508  1.00  0.00     0.001 A 
HETATM   10  C   UNL     1      13.098   6.058  10.596  1.00  0.00     0.007 A 
ENDBRANCH   4   5
ENDBRANCH   3   4
BRANCH   3  11
HETATM   11  C   UNL     1      18.045   6.122  10.183  1.00  0.00     0.288 C 
HETATM   12  O   UNL     1      18.619   6.228   9.107  1.00  0.00    -0.262 OA
BRANCH  11  13
HETATM   13  O   UNL     1      18.449   5.342  11.229  1.00  0.00    -0.320 OA
BRANCH  13  14
HETATM   14  C   UNL     1      18.272   5.913  12.529  1.00  0.00     0.174 C 
HETATM   15  C   UNL     1      17.896   4.816  13.503  1.00  0.00     0.034 C 
ENDBRANCH  13  14
ENDBRANCH  11  13
ENDBRANCH   3  11
ENDBRANCH   1   3
TORSDOF 6
ENDMDL
MODEL 3
REMARK VINA RESULT:      -6.2      1.848      4.160
REMARK  6 active torsions:
REMARK  status: ('A' for Active; 'I' for Inactive)
REMARK    1  A    between atoms: O_1  and  C_5 
REMARK    2  A    between atoms: O_2  and  C_7 
REMARK    3  A    between atoms: O_2  and  C_13 
REMARK    4  A    between atoms: C_4  and  C_5 
REMARK    5  A    between atoms: C_4  and  C_6 
REMARK    6  A    between atoms: C_5  and  C_7 
ROOT
HETATM    1  O   UNL     1      11.615   6.137   9.308  1.00  0.00    -0.385 OA
HETATM    2  H   UNL     1      10.702   6.180   9.634  1.00  0.00     0.210 HD
ENDROOT
BRANCH   1   3
HETATM    3  C   UNL     1      12.515   6.231  10.404  1.00  0.00     0.221 C 
BRANCH   3   4
HETATM    4  C   UNL     1      12.242   5.073  11.367  1.00  0.00     0.080 C 
BRANCH   4   5
HETATM    5  C   UNL     1      12.547   5.441  12.798  1.00  0.00    -0.055 A 
HETATM    6  C   UNL     1      12.016   6.608  13.327  1.00  0.00     0.007 A 
HETATM    7  C   UNL     1      12.298   6.949  14.650  1.00  0.00     0.001 A 
HETATM    8  C   UNL     1      13.107   6.120  15.426  1.00  0.00     0.000 A 
HETATM    9  C   UNL     1      13.634   4.949  14.881  1.00  0.00     0.001 A 
HETATM   10  C   UNL     1      13.352   4.608  13.558  1.00  0.00     0.007 A 
ENDBRANCH   4   5
ENDBRANCH   3   4
BRANCH   3  11
HETATM   11  C   UNL     1      13.924   6.152   9.851  1.00  0.00     0.288 C 
HETATM   12  O   UNL     1      14.207   5.786   8.717  1.00  0.00    -0.262 OA
BRANCH  11  13
HETATM   13  O   UNL     1      14.813   6.573  10.798  1.00  0.00    -0.320 OA
BRANCH  13  14
HETATM   14  C   UNL     1      16.114   5.980  10.731  1.00  0.00     0.174 C 
HETATM   15  C   UNL     1      16.593   5.683  12.136  1.00  0.00     0.034 C 
ENDBRANCH  13  14
ENDBRANCH  11  13
ENDBRANCH   3  11
ENDBRANCH   1   3
TORSDOF 6
ENDMDL
MODEL 4
REMARK VINA RESULT:      -6.1      1.244      2.340
REMARK  6 active torsions:
REMARK  status: ('A' for Active; 'I' for Inactive)
REMARK    1  A    between atoms: O_1  and  C_5 
REMARK    2  A    between atoms: O_2  and  C_7 
REMARK    3  A    between atoms: O_2  and  C_13 
REMARK    4  A    between atoms: C_4  and  C_5 
REMARK    5  A    between atoms: C_4  and  C_6 
REMARK    6  A    between atoms: C_5  and  C_7 
ROOT
HETATM    1  O   UNL     1      14.078   7.263  15.108  1.00  0.00    -0.385 OA
HETATM    2  H   UNL     1      13.226   7.594  15.434  1.00  0.00     0.210 HD
ENDROOT
BRANCH   1   3
HETATM    3  C   UNL     1      13.916   6.755  13.791  1.00  0.00     0.221 C 
BRANCH   3   4
HETATM    4  C   UNL     1      14.724   5.462  13.658  1.00  0.00     0.080 C 
BRANCH   4   5
HETATM    5  C   UNL     1      15.876   5.609  12.694  1.00  0.00    -0.055 A 
HETATM    6  C   UNL     1      17.157   5.287  13.114  1.00  0.00     0.007 A 
HETATM    7  C   UNL     1      18.222   5.423  12.223  1.00  0.00     0.001 A 
HETATM    8  C   UNL     1      17.991   5.879  10.925  1.00  0.00     0.000 A 
HETATM    9  C   UNL     1      16.697   6.199  10.517  1.00  0.00     0.001 A 
HETATM   10  C   UNL     1      15.632   6.063  11.408  1.00  0.00     0.007 A 
ENDBRANCH   4   5
ENDBRANCH   3   4
BRANCH   3  11
HETATM   11  C   UNL     1      12.438   6.491  13.577  1.00  0.00     0.288 C 
HETATM   12  O   UNL     1      11.540   6.984  14.247  1.00  0.00    -0.262 OA
BRANCH  11  13
HETATM   13  O   UNL     1      12.272   5.648  12.516  1.00  0.00    -0.320 OA
BRANCH  13  14
HETATM   14  C   UNL     1      11.982   6.280  11.265  1.00  0.00     0.174 C 
HETATM   15  C   UNL     1      12.280   5.308  10.142  1.00  0.00     0.034 C 
ENDBRANCH  13  14
ENDBRANCH  11  13
ENDBRANCH   3  11
ENDBRANCH   1   3
TORSDOF 6
ENDMDL
MODEL 5
REMARK VINA RESULT:      -6.1      1.499      4.356
REMARK  6 active torsions:
REMARK  status: ('A' for Active; 'I' for Inactive)
REMARK    1  A    between atoms: O_1  and  C_5 
REMARK    2  A    between atoms: O_2  and  C_7 
REMARK    3  A    between atoms: O_2  and  C_13 
REMARK    4  A    between atoms: C_4  and  C_5 
REMARK    5  A    between atoms: C_4  and  C_6 
REMARK    6  A    between atoms: C_5  and  C_7 
ROOT
HETATM    1  O   UNL     1      12.230   4.839  13.432  1.00  0.00    -0.385 OA
HETATM    2  H   UNL     1      12.599   5.029  14.309  1.00  0.00     0.210 HD
ENDROOT
BRANCH   1   3
HETATM    3  C   UNL     1      12.990   5.516  12.440  1.00  0.00     0.221 C 
BRANCH   3   4
HETATM    4  C   UNL     1      12.036   6.310  11.545  1.00  0.00     0.080 C 
BRANCH   4   5
HETATM    5  C   UNL     1      12.155   5.912  10.094  1.00  0.00    -0.055 A 
HETATM    6  C   UNL     1      12.322   4.574   9.770  1.00  0.00     0.007 A 
HETATM    7  C   UNL     1      12.433   4.205   8.429  1.00  0.00     0.001 A 
HETATM    8  C   UNL     1      12.374   5.179   7.431  1.00  0.00     0.000 A 
HETATM    9  C   UNL     1      12.204   6.520   7.773  1.00  0.00     0.001 A 
HETATM   10  C   UNL     1      12.094   6.889   9.114  1.00  0.00     0.007 A 
ENDBRANCH   4   5
ENDBRANCH   3   4
BRANCH   3  11
HETATM   11  C   UNL     1      13.957   6.441  13.153  1.00  0.00     0.288 C 
HETATM   12  O   UNL     1      13.876   6.757  14.333  1.00  0.00    -0.262 OA
BRANCH  11  13
HETATM   13  O   UNL     1      14.934   6.839  12.286  1.00  0.00    -0.320 OA
BRANCH  13  14
HETATM   14  C   UNL     1      15.766   5.793  11.773  1.00  0.00     0.174 C 
HETATM   15  C   UNL     1      16.057   6.067  10.312  1.00  0.00     0.034 C 
ENDBRANCH  13  14
ENDBRANCH  11  13
ENDBRANCH   3  11
ENDBRANCH   1   3
TORSDOF 6
ENDMDL
MODEL 6
REMARK VINA RESULT:      -6.1      1.805      3.872
REMARK  6 active torsions:
REMARK  status: ('A' for Active; 'I' for Inactive)
REMARK    1  A    between atoms: O_1  and  C_5 
REMARK    2  A    between atoms: O_2  and  C_7 
REMARK    3  A    between atoms: O_2  and  C_13 
REMARK    4  A    between atoms: C_4  and  C_5 
REMARK    5  A    between atoms: C_4  and  C_6 
REMARK    6  A    between atoms: C_5  and  C_7 
ROOT
HETATM    1  O   UNL     1      12.170   4.644  13.005  1.00  0.00    -0.385 OA
HETATM    2  H   UNL     1      12.574   3.781  12.823  1.00  0.00     0.210 HD
ENDROOT
BRANCH   1   3
HETATM    3  C   UNL     1      13.189   5.601  13.260  1.00  0.00     0.221 C 
BRANCH   3   4
HETATM    4  C   UNL     1      13.680   6.165  11.925  1.00  0.00     0.080 C 
BRANCH   4   5
HETATM    5  C   UNL     1      15.169   5.989  11.748  1.00  0.00    -0.055 A 
HETATM    6  C   UNL     1      15.947   5.649  12.844  1.00  0.00     0.007 A 
HETATM    7  C   UNL     1      17.323   5.486  12.681  1.00  0.00     0.001 A 
HETATM    8  C   UNL     1      17.902   5.666  11.425  1.00  0.00     0.000 A 
HETATM    9  C   UNL     1      17.107   6.008  10.332  1.00  0.00     0.001 A 
HETATM   10  C   UNL     1      15.731   6.171  10.495  1.00  0.00     0.007 A 
ENDBRANCH   4   5
ENDBRANCH   3   4
BRANCH   3  11
HETATM   11  C   UNL     1      12.588   6.696  14.119  1.00  0.00     0.288 C 
HETATM   12  O   UNL     1      11.405   7.011  14.118  1.00  0.00    -0.262 OA
BRANCH  11  13
HETATM   13  O   UNL     1      13.560   7.248  14.904  1.00  0.00    -0.320 OA
BRANCH  13  14
HETATM   14  C   UNL     1      13.974   6.456  16.022  1.00  0.00     0.174 C 
HETATM   15  C   UNL     1      15.420   6.772  16.340  1.00  0.00     0.034 C 
ENDBRANCH  13  14
ENDBRANCH  11  13
ENDBRANCH   3  11
ENDBRANCH   1   3
TORSDOF 6
ENDMDL
MODEL 7
REMARK VINA RESULT:      -6.1      2.219      4.560
REMARK  6 active torsions:
REMARK  status: ('A' for Active; 'I' for Inactive)
REMARK    1  A    between atoms: O_1  and  C_5 
REMARK    2  A    between atoms: O_2  and  C_7 
REMARK    3  A    between atoms: O_2  and  C_13 
REMARK    4  A    between atoms: C_4  and  C_5 
REMARK    5  A    between atoms: C_4  and  C_6 
REMARK    6  A    between atoms: C_5  and  C_7 
ROOT
HETATM    1  O   UNL     1      11.897   4.586  14.812  1.00  0.00    -0.385 OA
HETATM    2  H   UNL     1      11.730   4.708  15.760  1.00  0.00     0.210 HD
ENDROOT
BRANCH   1   3
HETATM    3  C   UNL     1      12.705   5.653  14.333  1.00  0.00     0.221 C 
BRANCH   3   4
HETATM    4  C   UNL     1      11.987   6.328  13.162  1.00  0.00     0.080 C 
BRANCH   4   5
HETATM    5  C   UNL     1      12.768   6.214  11.875  1.00  0.00    -0.055 A 
HETATM    6  C   UNL     1      14.154   6.228  11.920  1.00  0.00     0.007 A 
HETATM    7  C   UNL     1      14.877   6.124  10.731  1.00  0.00     0.001 A 
HETATM    8  C   UNL     1      14.205   6.007   9.515  1.00  0.00     0.000 A 
HETATM    9  C   UNL     1      12.811   5.995   9.486  1.00  0.00     0.001 A 
HETATM   10  C   UNL     1      12.088   6.099  10.674  1.00  0.00     0.007 A 
ENDBRANCH   4   5
ENDBRANCH   3   4
BRANCH   3  11
HETATM   11  C   UNL     1      12.906   6.628  15.476  1.00  0.00     0.288 C 
HETATM   12  O   UNL     1      12.064   6.887  16.326  1.00  0.00    -0.262 OA
BRANCH  11  13
HETATM   13  O   UNL     1      14.169   7.145  15.420  1.00  0.00    -0.320 OA
BRANCH  13  14
HETATM   14  C   UNL     1      15.187   6.353  16.041  1.00  0.00     0.174 C 
HETATM   15  C   UNL     1      16.269   6.057  15.023  1.00  0.00     0.034 C 
ENDBRANCH  13  14
ENDBRANCH  11  13
ENDBRANCH   3  11
ENDBRANCH   1   3
TORSDOF 6
ENDMDL
MODEL 8
REMARK VINA RESULT:      -6.1      1.302      2.028
REMARK  6 active torsions:
REMARK  status: ('A' for Active; 'I' for Inactive)
REMARK    1  A    between atoms: O_1  and  C_5 
REMARK    2  A    between atoms: O_2  and  C_7 
REMARK    3  A    between atoms: O_2  and  C_13 
REMARK    4  A    between atoms: C_4  and  C_5 
REMARK    5  A    between atoms: C_4  and  C_6 
REMARK    6  A    between atoms: C_5  and  C_7 
ROOT
HETATM    1  O   UNL     1      14.094   7.294  15.232  1.00  0.00    -0.385 OA
HETATM    2  H   UNL     1      14.919   6.953  15.612  1.00  0.00     0.210 HD
ENDROOT
BRANCH   1   3
HETATM    3  C   UNL     1      13.953   6.814  13.901  1.00  0.00     0.221 C 
BRANCH   3   4
HETATM    4  C   UNL     1      14.789   5.541  13.745  1.00  0.00     0.080 C 
BRANCH   4   5
HETATM    5  C   UNL     1      15.839   5.681  12.669  1.00  0.00    -0.055 A 
HETATM    6  C   UNL     1      15.447   5.977  11.373  1.00  0.00     0.007 A 
HETATM    7  C   UNL     1      16.416   6.106  10.378  1.00  0.00     0.001 A 
HETATM    8  C   UNL     1      17.765   5.936  10.693  1.00  0.00     0.000 A 
HETATM    9  C   UNL     1      18.144   5.639  12.001  1.00  0.00     0.001 A 
HETATM   10  C   UNL     1      17.174   5.510  12.996  1.00  0.00     0.007 A 
ENDBRANCH   4   5
ENDBRANCH   3   4
BRANCH   3  11
HETATM   11  C   UNL     1      12.483   6.524  13.670  1.00  0.00     0.288 C 
HETATM   12  O   UNL     1      11.566   7.038  14.297  1.00  0.00    -0.262 OA
BRANCH  11  13
HETATM   13  O   UNL     1      12.347   5.631  12.645  1.00  0.00    -0.320 OA
BRANCH  13  14
HETATM   14  C   UNL     1      12.015   6.197  11.373  1.00  0.00     0.174 C 
HETATM   15  C   UNL     1      12.130   5.124  10.311  1.00  0.00     0.034 C 
ENDBRANCH  13  14
ENDBRANCH  11  13
ENDBRANCH   3  11
ENDBRANCH   1   3
TORSDOF 6
ENDMDL
MODEL 9
REMARK VINA RESULT:      -6.0      2.159      4.394
REMARK  6 active torsions:
REMARK  status: ('A' for Active; 'I' for Inactive)
REMARK    1  A    between atoms: O_1  and  C_5 
REMARK    2  A    between atoms: O_2  and  C_7 
REMARK    3  A    between atoms: O_2  and  C_13 
REMARK    4  A    between atoms: C_4  and  C_5 
REMARK    5  A    between atoms: C_4  and  C_6 
REMARK    6  A    between atoms: C_5  and  C_7 
ROOT
HETATM    1  O   UNL     1      11.900   4.529  14.865  1.00  0.00    -0.385 OA
HETATM    2  H   UNL     1      11.848   3.569  14.996  1.00  0.00     0.210 HD
ENDROOT
BRANCH   1   3
HETATM    3  C   UNL     1      13.093   4.848  14.163  1.00  0.00     0.221 C 
BRANCH   3   4
HETATM    4  C   UNL     1      12.920   6.213  13.492  1.00  0.00     0.080 C 
BRANCH   4   5
HETATM    5  C   UNL     1      13.173   6.150  12.005  1.00  0.00    -0.055 A 
HETATM    6  C   UNL     1      12.095   6.079  11.136  1.00  0.00     0.007 A 
HETATM    7  C   UNL     1      12.328   6.020   9.762  1.00  0.00     0.001 A 
HETATM    8  C   UNL     1      13.635   6.035   9.275  1.00  0.00     0.000 A 
HETATM    9  C   UNL     1      14.709   6.107  10.162  1.00  0.00     0.001 A 
HETATM   10  C   UNL     1      14.476   6.165  11.536  1.00  0.00     0.007 A 
ENDBRANCH   4   5
ENDBRANCH   3   4
BRANCH   3  11
HETATM   11  C   UNL     1      14.226   4.883  15.171  1.00  0.00     0.288 C 
HETATM   12  O   UNL     1      14.313   5.685  16.091  1.00  0.00    -0.262 OA
BRANCH  11  13
HETATM   13  O   UNL     1      15.105   3.872  14.906  1.00  0.00    -0.320 OA
BRANCH  13  14
HETATM   14  C   UNL     1      16.487   4.186  15.115  1.00  0.00     0.174 C 
HETATM   15  C   UNL     1      17.013   4.923  13.901  1.00  0.00     0.034 C 
ENDBRANCH  13  14
ENDBRANCH  11  13
ENDBRANCH   3  11
ENDBRANCH   1   3
TORSDOF 6
ENDMDL
