MODEL 1
REMARK VINA RESULT:      -6.2      0.000      0.000
REMARK  6 active torsions:
REMARK  status: ('A' for Active; 'I' for Inactive)
REMARK    1  A    between atoms: O_1  and  C_5 
REMARK    2  A    between atoms: O_2  and  C_7 
REMARK    3  A    between atoms: O_2  and  C_13 
REMARK    4  A    between atoms: C_4  and  C_5 
REMARK    5  A    between atoms: C_4  and  C_6 
REMARK    6  A    between atoms: C_5  and  C_7 
ROOT
HETATM    1  O   UNL     1      20.951  -6.873  33.755  1.00  0.00    -0.385 OA
HETATM    2  H   UNL     1      20.736  -7.788  33.515  1.00  0.00     0.210 HD
ENDROOT
BRANCH   1   3
HETATM    3  C   UNL     1      22.149  -6.480  33.098  1.00  0.00     0.221 C 
BRANCH   3   4
HETATM    4  C   UNL     1      22.445  -5.019  33.447  1.00  0.00     0.080 C 
BRANCH   4   5
HETATM    5  C   UNL     1      21.688  -4.059  32.562  1.00  0.00    -0.055 A 
HETATM    6  C   UNL     1      21.198  -4.502  31.343  1.00  0.00     0.007 A 
HETATM    7  C   UNL     1      20.498  -3.615  30.525  1.00  0.00     0.001 A 
HETATM    8  C   UNL     1      20.299  -2.297  30.936  1.00  0.00     0.000 A 
HETATM    9  C   UNL     1      20.797  -1.866  32.165  1.00  0.00     0.001 A 
HETATM   10  C   UNL     1      21.497  -2.753  32.983  1.00  0.00     0.007 A 
ENDBRANCH   4   5
ENDBRANCH   3   4
BRANCH   3  11
HETATM   11  C   UNL     1      23.261  -7.388  33.586  1.00  0.00     0.288 C 
HETATM   12  O   UNL     1      23.504  -7.618  34.763  1.00  0.00    -0.262 OA
BRANCH  11  13
HETATM   13  O   UNL     1      23.920  -7.920  32.515  1.00  0.00    -0.320 OA
BRANCH  13  14
HETATM   14  C   UNL     1      23.354  -7.626  31.233  1.00  0.00     0.174 C 
HETATM   15  C   UNL     1      24.240  -8.217  30.157  1.00  0.00     0.034 C 
ENDBRANCH  13  14
ENDBRANCH  11  13
ENDBRANCH   3  11
ENDBRANCH   1   3
TORSDOF 6
ENDMDL
MODEL 2
REMARK VINA RESULT:      -6.2      0.138      1.298
REMARK  6 active torsions:
REMARK  status: ('A' for Active; 'I' for Inactive)
REMARK    1  A    between atoms: O_1  and  C_5 
REMARK    2  A    between atoms: O_2  and  C_7 
REMARK    3  A    between atoms: O_2  and  C_13 
REMARK    4  A    between atoms: C_4  and  C_5 
REMARK    5  A    between atoms: C_4  and  C_6 
REMARK    6  A    between atoms: C_5  and  C_7 
ROOT
HETATM    1  O   UNL     1      20.939  -6.770  33.947  1.00  0.00    -0.385 OA
HETATM    2  H   UNL     1      20.189  -6.977  33.367  1.00  0.00     0.210 HD
ENDROOT
BRANCH   1   3
HETATM    3  C   UNL     1      22.076  -6.452  33.155  1.00  0.00     0.221 C 
BRANCH   3   4
HETATM    4  C   UNL     1      22.439  -4.983  33.384  1.00  0.00     0.080 C 
BRANCH   4   5
HETATM    5  C   UNL     1      21.661  -4.058  32.480  1.00  0.00    -0.055 A 
HETATM    6  C   UNL     1      21.480  -2.736  32.856  1.00  0.00     0.007 A 
HETATM    7  C   UNL     1      20.761  -1.880  32.021  1.00  0.00     0.001 A 
HETATM    8  C   UNL     1      20.231  -2.359  30.822  1.00  0.00     0.000 A 
HETATM    9  C   UNL     1      20.422  -3.691  30.458  1.00  0.00     0.001 A 
HETATM   10  C   UNL     1      21.141  -4.546  31.293  1.00  0.00     0.007 A 
ENDBRANCH   4   5
ENDBRANCH   3   4
BRANCH   3  11
HETATM   11  C   UNL     1      23.208  -7.362  33.589  1.00  0.00     0.288 C 
HETATM   12  O   UNL     1      23.470  -7.641  34.751  1.00  0.00    -0.262 OA
BRANCH  11  13
HETATM   13  O   UNL     1      23.864  -7.834  32.488  1.00  0.00    -0.320 OA
BRANCH  13  14
HETATM   14  C   UNL     1      23.177  -7.668  31.243  1.00  0.00     0.174 C 
HETATM   15  C   UNL     1      24.124  -8.002  30.109  1.00  0.00     0.034 C 
ENDBRANCH  13  14
ENDBRANCH  11  13
ENDBRANCH   3  11
ENDBRANCH   1   3
TORSDOF 6
ENDMDL
MODEL 3
REMARK VINA RESULT:      -6.1      2.852      5.549
REMARK  6 active torsions:
REMARK  status: ('A' for Active; 'I' for Inactive)
REMARK    1  A    between atoms: O_1  and  C_5 
REMARK    2  A    between atoms: O_2  and  C_7 
REMARK    3  A    between atoms: O_2  and  C_13 
REMARK    4  A    between atoms: C_4  and  C_5 
REMARK    5  A    between atoms: C_4  and  C_6 
REMARK    6  A    between atoms: C_5  and  C_7 
ROOT
HETATM    1  O   UNL     1      20.334  -3.315  30.760  1.00  0.00    -0.385 OA
HETATM    2  H   UNL     1      19.790  -4.072  30.494  1.00  0.00     0.210 HD
ENDROOT
BRANCH   1   3
HETATM    3  C   UNL     1      20.943  -3.588  32.016  1.00  0.00     0.221 C 
BRANCH   3   4
HETATM    4  C   UNL     1      22.103  -4.563  31.799  1.00  0.00     0.080 C 
BRANCH   4   5
HETATM    5  C   UNL     1      22.034  -5.745  32.735  1.00  0.00    -0.055 A 
HETATM    6  C   UNL     1      20.812  -6.104  33.284  1.00  0.00     0.007 A 
HETATM    7  C   UNL     1      20.747  -7.197  34.149  1.00  0.00     0.001 A 
HETATM    8  C   UNL     1      21.904  -7.914  34.454  1.00  0.00     0.000 A 
HETATM    9  C   UNL     1      23.125  -7.541  33.894  1.00  0.00     0.001 A 
HETATM   10  C   UNL     1      23.190  -6.448  33.028  1.00  0.00     0.007 A 
ENDBRANCH   4   5
ENDBRANCH   3   4
BRANCH   3  11
HETATM   11  C   UNL     1      21.443  -2.273  32.581  1.00  0.00     0.288 C 
HETATM   12  O   UNL     1      21.409  -1.203  31.987  1.00  0.00    -0.262 OA
BRANCH  11  13
HETATM   13  O   UNL     1      21.906  -2.466  33.851  1.00  0.00    -0.320 OA
BRANCH  13  14
HETATM   14  C   UNL     1      21.432  -1.535  34.829  1.00  0.00     0.174 C 
HETATM   15  C   UNL     1      22.468  -1.404  35.926  1.00  0.00     0.034 C 
ENDBRANCH  13  14
ENDBRANCH  11  13
ENDBRANCH   3  11
ENDBRANCH   1   3
TORSDOF 6
ENDMDL
MODEL 4
REMARK VINA RESULT:      -6.1      3.629      5.645
REMARK  6 active torsions:
REMARK  status: ('A' for Active; 'I' for Inactive)
REMARK    1  A    between atoms: O_1  and  C_5 
REMARK    2  A    between atoms: O_2  and  C_7 
REMARK    3  A    between atoms: O_2  and  C_13 
REMARK    4  A    between atoms: C_4  and  C_5 
REMARK    5  A    between atoms: C_4  and  C_6 
REMARK    6  A    between atoms: C_5  and  C_7 
ROOT
HETATM    1  O   UNL     1      21.169  -4.590  28.649  1.00  0.00    -0.385 OA
HETATM    2  H   UNL     1      20.761  -5.374  28.250  1.00  0.00     0.210 HD
ENDROOT
BRANCH   1   3
HETATM    3  C   UNL     1      20.252  -3.988  29.554  1.00  0.00     0.221 C 
BRANCH   3   4
HETATM    4  C   UNL     1      20.861  -2.686  30.080  1.00  0.00     0.080 C 
BRANCH   4   5
HETATM    5  C   UNL     1      21.294  -2.804  31.521  1.00  0.00    -0.055 A 
HETATM    6  C   UNL     1      21.661  -4.044  32.020  1.00  0.00     0.007 A 
HETATM    7  C   UNL     1      22.061  -4.154  33.352  1.00  0.00     0.001 A 
HETATM    8  C   UNL     1      22.087  -3.022  34.167  1.00  0.00     0.000 A 
HETATM    9  C   UNL     1      21.715  -1.782  33.651  1.00  0.00     0.001 A 
HETATM   10  C   UNL     1      21.315  -1.672  32.319  1.00  0.00     0.007 A 
ENDBRANCH   4   5
ENDBRANCH   3   4
BRANCH   3  11
HETATM   11  C   UNL     1      18.968  -3.714  28.794  1.00  0.00     0.288 C 
HETATM   12  O   UNL     1      18.047  -4.510  28.675  1.00  0.00    -0.262 OA
BRANCH  11  13
HETATM   13  O   UNL     1      18.995  -2.444  28.294  1.00  0.00    -0.320 OA
BRANCH  13  14
HETATM   14  C   UNL     1      19.083  -2.344  26.868  1.00  0.00     0.174 C 
HETATM   15  C   UNL     1      20.386  -1.665  26.502  1.00  0.00     0.034 C 
ENDBRANCH  13  14
ENDBRANCH  11  13
ENDBRANCH   3  11
ENDBRANCH   1   3
TORSDOF 6
ENDMDL
MODEL 5
REMARK VINA RESULT:      -6.1      4.141      5.788
REMARK  6 active torsions:
REMARK  status: ('A' for Active; 'I' for Inactive)
REMARK    1  A    between atoms: O_1  and  C_5 
REMARK    2  A    between atoms: O_2  and  C_7 
REMARK    3  A    between atoms: O_2  and  C_13 
REMARK    4  A    between atoms: C_4  and  C_5 
REMARK    5  A    between atoms: C_4  and  C_6 
REMARK    6  A    between atoms: C_5  and  C_7 
ROOT
HETATM    1  O   UNL     1      18.964  -1.852  29.357  1.00  0.00    -0.385 OA
HETATM    2  H   UNL     1      18.329  -2.560  29.549  1.00  0.00     0.210 HD
ENDROOT
BRANCH   1   3
HETATM    3  C   UNL     1      20.273  -2.400  29.270  1.00  0.00     0.221 C 
BRANCH   3   4
HETATM    4  C   UNL     1      20.341  -3.654  30.146  1.00  0.00     0.080 C 
BRANCH   4   5
HETATM    5  C   UNL     1      20.953  -3.370  31.496  1.00  0.00    -0.055 A 
HETATM    6  C   UNL     1      20.891  -2.085  32.013  1.00  0.00     0.007 A 
HETATM    7  C   UNL     1      21.457  -1.821  33.261  1.00  0.00     0.001 A 
HETATM    8  C   UNL     1      22.078  -2.846  33.975  1.00  0.00     0.000 A 
HETATM    9  C   UNL     1      22.133  -4.134  33.442  1.00  0.00     0.001 A 
HETATM   10  C   UNL     1      21.567  -4.397  32.195  1.00  0.00     0.007 A 
ENDBRANCH   4   5
ENDBRANCH   3   4
BRANCH   3  11
HETATM   11  C   UNL     1      20.533  -2.744  27.817  1.00  0.00     0.288 C 
HETATM   12  O   UNL     1      21.057  -1.991  27.007  1.00  0.00    -0.262 OA
BRANCH  11  13
HETATM   13  O   UNL     1      20.117  -4.020  27.566  1.00  0.00    -0.320 OA
BRANCH  13  14
HETATM   14  C   UNL     1      18.903  -4.139  26.817  1.00  0.00     0.174 C 
HETATM   15  C   UNL     1      17.874  -4.865  27.659  1.00  0.00     0.034 C 
ENDBRANCH  13  14
ENDBRANCH  11  13
ENDBRANCH   3  11
ENDBRANCH   1   3
TORSDOF 6
ENDMDL
MODEL 6
REMARK VINA RESULT:      -6.0      4.286      6.127
REMARK  6 active torsions:
REMARK  status: ('A' for Active; 'I' for Inactive)
REMARK    1  A    between atoms: O_1  and  C_5 
REMARK    2  A    between atoms: O_2  and  C_7 
REMARK    3  A    between atoms: O_2  and  C_13 
REMARK    4  A    between atoms: C_4  and  C_5 
REMARK    5  A    between atoms: C_4  and  C_6 
REMARK    6  A    between atoms: C_5  and  C_7 
ROOT
HETATM    1  O   UNL     1      21.334  -1.645  28.362  1.00  0.00    -0.385 OA
HETATM    2  H   UNL     1      22.094  -1.976  27.858  1.00  0.00     0.210 HD
ENDROOT
BRANCH   1   3
HETATM    3  C   UNL     1      20.462  -2.725  28.667  1.00  0.00     0.221 C 
BRANCH   3   4
HETATM    4  C   UNL     1      19.746  -2.422  29.986  1.00  0.00     0.080 C 
BRANCH   4   5
HETATM    5  C   UNL     1      20.547  -2.874  31.183  1.00  0.00    -0.055 A 
HETATM    6  C   UNL     1      20.810  -1.972  32.203  1.00  0.00     0.007 A 
HETATM    7  C   UNL     1      21.550  -2.388  33.309  1.00  0.00     0.001 A 
HETATM    8  C   UNL     1      22.018  -3.701  33.381  1.00  0.00     0.000 A 
HETATM    9  C   UNL     1      21.745  -4.596  32.348  1.00  0.00     0.001 A 
HETATM   10  C   UNL     1      21.005  -4.180  31.241  1.00  0.00     0.007 A 
ENDBRANCH   4   5
ENDBRANCH   3   4
BRANCH   3  11
HETATM   11  C   UNL     1      19.467  -2.848  27.530  1.00  0.00     0.288 C 
HETATM   12  O   UNL     1      18.729  -1.948  27.150  1.00  0.00    -0.262 OA
BRANCH  11  13
HETATM   13  O   UNL     1      19.544  -4.099  26.988  1.00  0.00    -0.320 OA
BRANCH  13  14
HETATM   14  C   UNL     1      18.290  -4.751  26.758  1.00  0.00     0.174 C 
HETATM   15  C   UNL     1      17.686  -5.140  28.091  1.00  0.00     0.034 C 
ENDBRANCH  13  14
ENDBRANCH  11  13
ENDBRANCH   3  11
ENDBRANCH   1   3
TORSDOF 6
ENDMDL
MODEL 7
REMARK VINA RESULT:      -6.0      4.470      6.135
REMARK  6 active torsions:
REMARK  status: ('A' for Active; 'I' for Inactive)
REMARK    1  A    between atoms: O_1  and  C_5 
REMARK    2  A    between atoms: O_2  and  C_7 
REMARK    3  A    between atoms: O_2  and  C_13 
REMARK    4  A    between atoms: C_4  and  C_5 
REMARK    5  A    between atoms: C_4  and  C_6 
REMARK    6  A    between atoms: C_5  and  C_7 
ROOT
HETATM    1  O   UNL     1      20.958  -1.575  27.881  1.00  0.00    -0.385 OA
HETATM    2  H   UNL     1      21.894  -1.806  27.989  1.00  0.00     0.210 HD
ENDROOT
BRANCH   1   3
HETATM    3  C   UNL     1      20.150  -2.678  28.273  1.00  0.00     0.221 C 
BRANCH   3   4
HETATM    4  C   UNL     1      19.490  -2.353  29.615  1.00  0.00     0.080 C 
BRANCH   4   5
HETATM    5  C   UNL     1      20.312  -2.841  30.784  1.00  0.00    -0.055 A 
HETATM    6  C   UNL     1      20.747  -4.157  30.804  1.00  0.00     0.007 A 
HETATM    7  C   UNL     1      21.506  -4.609  31.884  1.00  0.00     0.001 A 
HETATM    8  C   UNL     1      21.818  -3.739  32.929  1.00  0.00     0.000 A 
HETATM    9  C   UNL     1      21.373  -2.418  32.894  1.00  0.00     0.001 A 
HETATM   10  C   UNL     1      20.614  -1.966  31.814  1.00  0.00     0.007 A 
ENDBRANCH   4   5
ENDBRANCH   3   4
BRANCH   3  11
HETATM   11  C   UNL     1      19.105  -2.889  27.195  1.00  0.00     0.288 C 
HETATM   12  O   UNL     1      18.333  -2.027  26.796  1.00  0.00    -0.262 OA
BRANCH  11  13
HETATM   13  O   UNL     1      19.180  -4.170  26.729  1.00  0.00    -0.320 OA
BRANCH  13  14
HETATM   14  C   UNL     1      18.893  -5.194  27.688  1.00  0.00     0.174 C 
HETATM   15  C   UNL     1      17.391  -5.336  27.820  1.00  0.00     0.034 C 
ENDBRANCH  13  14
ENDBRANCH  11  13
ENDBRANCH   3  11
ENDBRANCH   1   3
TORSDOF 6
ENDMDL
MODEL 8
REMARK VINA RESULT:      -6.0      3.514      5.279
REMARK  6 active torsions:
REMARK  status: ('A' for Active; 'I' for Inactive)
REMARK    1  A    between atoms: O_1  and  C_5 
REMARK    2  A    between atoms: O_2  and  C_7 
REMARK    3  A    between atoms: O_2  and  C_13 
REMARK    4  A    between atoms: C_4  and  C_5 
REMARK    5  A    between atoms: C_4  and  C_6 
REMARK    6  A    between atoms: C_5  and  C_7 
ROOT
HETATM    1  O   UNL     1      21.720  -0.762  31.588  1.00  0.00    -0.385 OA
HETATM    2  H   UNL     1      21.141  -0.138  31.123  1.00  0.00     0.210 HD
ENDROOT
BRANCH   1   3
HETATM    3  C   UNL     1      21.066  -2.019  31.703  1.00  0.00     0.221 C 
BRANCH   3   4
HETATM    4  C   UNL     1      21.588  -2.948  30.605  1.00  0.00     0.080 C 
BRANCH   4   5
HETATM    5  C   UNL     1      20.539  -3.235  29.558  1.00  0.00    -0.055 A 
HETATM    6  C   UNL     1      20.632  -2.620  28.319  1.00  0.00     0.007 A 
HETATM    7  C   UNL     1      19.663  -2.884  27.351  1.00  0.00     0.001 A 
HETATM    8  C   UNL     1      18.614  -3.758  27.635  1.00  0.00     0.000 A 
HETATM    9  C   UNL     1      18.534  -4.370  28.885  1.00  0.00     0.001 A 
HETATM   10  C   UNL     1      19.503  -4.106  29.854  1.00  0.00     0.007 A 
ENDBRANCH   4   5
ENDBRANCH   3   4
BRANCH   3  11
HETATM   11  C   UNL     1      21.380  -2.578  33.077  1.00  0.00     0.288 C 
HETATM   12  O   UNL     1      21.783  -3.714  33.290  1.00  0.00    -0.262 OA
BRANCH  11  13
HETATM   13  O   UNL     1      21.171  -1.615  34.022  1.00  0.00    -0.320 OA
BRANCH  13  14
HETATM   14  C   UNL     1      21.902  -1.779  35.243  1.00  0.00     0.174 C 
HETATM   15  C   UNL     1      23.311  -1.262  35.046  1.00  0.00     0.034 C 
ENDBRANCH  13  14
ENDBRANCH  11  13
ENDBRANCH   3  11
ENDBRANCH   1   3
TORSDOF 6
ENDMDL
MODEL 9
REMARK VINA RESULT:      -6.0      3.608      5.938
REMARK  6 active torsions:
REMARK  status: ('A' for Active; 'I' for Inactive)
REMARK    1  A    between atoms: O_1  and  C_5 
REMARK    2  A    between atoms: O_2  and  C_7 
REMARK    3  A    between atoms: O_2  and  C_13 
REMARK    4  A    between atoms: C_4  and  C_5 
REMARK    5  A    between atoms: C_4  and  C_6 
REMARK    6  A    between atoms: C_5  and  C_7 
ROOT
HETATM    1  O   UNL     1      21.798  -1.585  29.765  1.00  0.00    -0.385 OA
HETATM    2  H   UNL     1      21.715  -1.114  30.609  1.00  0.00     0.210 HD
ENDROOT
BRANCH   1   3
HETATM    3  C   UNL     1      21.154  -2.849  29.865  1.00  0.00     0.221 C 
BRANCH   3   4
HETATM    4  C   UNL     1      21.044  -3.231  31.343  1.00  0.00     0.080 C 
BRANCH   4   5
HETATM    5  C   UNL     1      21.740  -4.536  31.645  1.00  0.00    -0.055 A 
HETATM    6  C   UNL     1      22.114  -4.819  32.950  1.00  0.00     0.007 A 
HETATM    7  C   UNL     1      22.758  -6.025  33.230  1.00  0.00     0.001 A 
HETATM    8  C   UNL     1      23.017  -6.932  32.202  1.00  0.00     0.000 A 
HETATM    9  C   UNL     1      22.634  -6.633  30.895  1.00  0.00     0.001 A 
HETATM   10  C   UNL     1      21.991  -5.427  30.614  1.00  0.00     0.007 A 
ENDBRANCH   4   5
ENDBRANCH   3   4
BRANCH   3  11
HETATM   11  C   UNL     1      19.780  -2.717  29.238  1.00  0.00     0.288 C 
HETATM   12  O   UNL     1      18.851  -2.087  29.725  1.00  0.00    -0.262 OA
BRANCH  11  13
HETATM   13  O   UNL     1      19.755  -3.383  28.046  1.00  0.00    -0.320 OA
BRANCH  13  14
HETATM   14  C   UNL     1      19.229  -2.645  26.938  1.00  0.00     0.174 C 
HETATM   15  C   UNL     1      20.282  -1.672  26.450  1.00  0.00     0.034 C 
ENDBRANCH  13  14
ENDBRANCH  11  13
ENDBRANCH   3  11
ENDBRANCH   1   3
TORSDOF 6
ENDMDL
