MODEL 1
REMARK VINA RESULT:      -6.3      0.000      0.000
REMARK  6 active torsions:
REMARK  status: ('A' for Active; 'I' for Inactive)
REMARK    1  A    between atoms: O_1  and  C_5 
REMARK    2  A    between atoms: O_2  and  C_7 
REMARK    3  A    between atoms: O_2  and  C_13 
REMARK    4  A    between atoms: C_4  and  C_5 
REMARK    5  A    between atoms: C_4  and  C_6 
REMARK    6  A    between atoms: C_5  and  C_7 
ROOT
HETATM    1  O   UNL     1      11.711   6.648  13.287  1.00  0.00    -0.385 OA
HETATM    2  H   UNL     1      11.442   5.883  13.820  1.00  0.00     0.210 HD
ENDROOT
BRANCH   1   3
HETATM    3  C   UNL     1      12.689   6.244  12.338  1.00  0.00     0.221 C 
BRANCH   3   4
HETATM    4  C   UNL     1      13.912   5.710  13.088  1.00  0.00     0.080 C 
BRANCH   4   5
HETATM    5  C   UNL     1      15.188   5.908  12.306  1.00  0.00    -0.055 A 
HETATM    6  C   UNL     1      15.141   6.560  11.084  1.00  0.00     0.007 A 
HETATM    7  C   UNL     1      16.320   6.744  10.361  1.00  0.00     0.001 A 
HETATM    8  C   UNL     1      17.530   6.273  10.871  1.00  0.00     0.000 A 
HETATM    9  C   UNL     1      17.562   5.619  12.102  1.00  0.00     0.001 A 
HETATM   10  C   UNL     1      16.383   5.436  12.825  1.00  0.00     0.007 A 
ENDBRANCH   4   5
ENDBRANCH   3   4
BRANCH   3  11
HETATM   11  C   UNL     1      12.072   5.163  11.472  1.00  0.00     0.288 C 
HETATM   12  O   UNL     1      11.952   3.991  11.803  1.00  0.00    -0.262 OA
BRANCH  11  13
HETATM   13  O   UNL     1      11.654   5.706  10.290  1.00  0.00    -0.320 OA
BRANCH  13  14
HETATM   14  C   UNL     1      12.341   5.243   9.122  1.00  0.00     0.174 C 
HETATM   15  C   UNL     1      12.253   6.306   8.047  1.00  0.00     0.034 C 
ENDBRANCH  13  14
ENDBRANCH  11  13
ENDBRANCH   3  11
ENDBRANCH   1   3
TORSDOF 6
ENDMDL
MODEL 2
REMARK VINA RESULT:      -6.3      3.142      5.373
REMARK  6 active torsions:
REMARK  status: ('A' for Active; 'I' for Inactive)
REMARK    1  A    between atoms: O_1  and  C_5 
REMARK    2  A    between atoms: O_2  and  C_7 
REMARK    3  A    between atoms: O_2  and  C_13 
REMARK    4  A    between atoms: C_4  and  C_5 
REMARK    5  A    between atoms: C_4  and  C_6 
REMARK    6  A    between atoms: C_5  and  C_7 
ROOT
HETATM    1  O   UNL     1      16.847   8.132   9.876  1.00  0.00    -0.385 OA
HETATM    2  H   UNL     1      17.741   8.270   9.527  1.00  0.00     0.210 HD
ENDROOT
BRANCH   1   3
HETATM    3  C   UNL     1      16.778   6.866  10.519  1.00  0.00     0.221 C 
BRANCH   3   4
HETATM    4  C   UNL     1      15.514   6.143  10.048  1.00  0.00     0.080 C 
BRANCH   4   5
HETATM    5  C   UNL     1      14.407   6.211  11.072  1.00  0.00    -0.055 A 
HETATM    6  C   UNL     1      13.093   6.046  10.663  1.00  0.00     0.007 A 
HETATM    7  C   UNL     1      12.069   6.109  11.608  1.00  0.00     0.001 A 
HETATM    8  C   UNL     1      12.373   6.337  12.950  1.00  0.00     0.000 A 
HETATM    9  C   UNL     1      13.700   6.501  13.347  1.00  0.00     0.001 A 
HETATM   10  C   UNL     1      14.724   6.438  12.402  1.00  0.00     0.007 A 
ENDBRANCH   4   5
ENDBRANCH   3   4
BRANCH   3  11
HETATM   11  C   UNL     1      18.021   6.087  10.134  1.00  0.00     0.288 C 
HETATM   12  O   UNL     1      18.575   6.154   9.045  1.00  0.00    -0.262 OA
BRANCH  11  13
HETATM   13  O   UNL     1      18.431   5.327  11.192  1.00  0.00    -0.320 OA
BRANCH  13  14
HETATM   14  C   UNL     1      18.242   5.916  12.484  1.00  0.00     0.174 C 
HETATM   15  C   UNL     1      17.995   4.816  13.495  1.00  0.00     0.034 C 
ENDBRANCH  13  14
ENDBRANCH  11  13
ENDBRANCH   3  11
ENDBRANCH   1   3
TORSDOF 6
ENDMDL
MODEL 3
REMARK VINA RESULT:      -6.2      1.869      4.191
REMARK  6 active torsions:
REMARK  status: ('A' for Active; 'I' for Inactive)
REMARK    1  A    between atoms: O_1  and  C_5 
REMARK    2  A    between atoms: O_2  and  C_7 
REMARK    3  A    between atoms: O_2  and  C_13 
REMARK    4  A    between atoms: C_4  and  C_5 
REMARK    5  A    between atoms: C_4  and  C_6 
REMARK    6  A    between atoms: C_5  and  C_7 
ROOT
HETATM    1  O   UNL     1      11.593   6.130   9.351  1.00  0.00    -0.385 OA
HETATM    2  H   UNL     1      11.511   6.994   8.917  1.00  0.00     0.210 HD
ENDROOT
BRANCH   1   3
HETATM    3  C   UNL     1      12.522   6.224  10.422  1.00  0.00     0.221 C 
BRANCH   3   4
HETATM    4  C   UNL     1      12.289   5.054  11.381  1.00  0.00     0.080 C 
BRANCH   4   5
HETATM    5  C   UNL     1      12.572   5.430  12.815  1.00  0.00    -0.055 A 
HETATM    6  C   UNL     1      12.082   6.628  13.312  1.00  0.00     0.007 A 
HETATM    7  C   UNL     1      12.343   6.976  14.637  1.00  0.00     0.001 A 
HETATM    8  C   UNL     1      13.092   6.123  15.447  1.00  0.00     0.000 A 
HETATM    9  C   UNL     1      13.579   4.921  14.934  1.00  0.00     0.001 A 
HETATM   10  C   UNL     1      13.317   4.573  13.608  1.00  0.00     0.007 A 
ENDBRANCH   4   5
ENDBRANCH   3   4
BRANCH   3  11
HETATM   11  C   UNL     1      13.917   6.165   9.829  1.00  0.00     0.288 C 
HETATM   12  O   UNL     1      14.173   5.791   8.692  1.00  0.00    -0.262 OA
BRANCH  11  13
HETATM   13  O   UNL     1      14.824   6.615  10.745  1.00  0.00    -0.320 OA
BRANCH  13  14
HETATM   14  C   UNL     1      16.088   5.944  10.742  1.00  0.00     0.174 C 
HETATM   15  C   UNL     1      16.521   5.703  12.173  1.00  0.00     0.034 C 
ENDBRANCH  13  14
ENDBRANCH  11  13
ENDBRANCH   3  11
ENDBRANCH   1   3
TORSDOF 6
ENDMDL
MODEL 4
REMARK VINA RESULT:      -6.1      1.288      1.982
REMARK  6 active torsions:
REMARK  status: ('A' for Active; 'I' for Inactive)
REMARK    1  A    between atoms: O_1  and  C_5 
REMARK    2  A    between atoms: O_2  and  C_7 
REMARK    3  A    between atoms: O_2  and  C_13 
REMARK    4  A    between atoms: C_4  and  C_5 
REMARK    5  A    between atoms: C_4  and  C_6 
REMARK    6  A    between atoms: C_5  and  C_7 
ROOT
HETATM    1  O   UNL     1      14.058   7.294  15.058  1.00  0.00    -0.385 OA
HETATM    2  H   UNL     1      14.009   8.262  15.017  1.00  0.00     0.210 HD
ENDROOT
BRANCH   1   3
HETATM    3  C   UNL     1      13.890   6.755  13.753  1.00  0.00     0.221 C 
BRANCH   3   4
HETATM    4  C   UNL     1      14.685   5.452  13.652  1.00  0.00     0.080 C 
BRANCH   4   5
HETATM    5  C   UNL     1      15.858   5.575  12.709  1.00  0.00    -0.055 A 
HETATM    6  C   UNL     1      15.633   5.936  11.390  1.00  0.00     0.007 A 
HETATM    7  C   UNL     1      16.717   6.049  10.518  1.00  0.00     0.001 A 
HETATM    8  C   UNL     1      18.010   5.800  10.978  1.00  0.00     0.000 A 
HETATM    9  C   UNL     1      18.221   5.439  12.308  1.00  0.00     0.001 A 
HETATM   10  C   UNL     1      17.137   5.325  13.180  1.00  0.00     0.007 A 
ENDBRANCH   4   5
ENDBRANCH   3   4
BRANCH   3  11
HETATM   11  C   UNL     1      12.409   6.501  13.547  1.00  0.00     0.288 C 
HETATM   12  O   UNL     1      11.517   7.000  14.221  1.00  0.00    -0.262 OA
BRANCH  11  13
HETATM   13  O   UNL     1      12.233   5.657  12.488  1.00  0.00    -0.320 OA
BRANCH  13  14
HETATM   14  C   UNL     1      12.017   6.292  11.223  1.00  0.00     0.174 C 
HETATM   15  C   UNL     1      12.210   5.271  10.121  1.00  0.00     0.034 C 
ENDBRANCH  13  14
ENDBRANCH  11  13
ENDBRANCH   3  11
ENDBRANCH   1   3
TORSDOF 6
ENDMDL
MODEL 5
REMARK VINA RESULT:      -6.1      1.829      3.711
REMARK  6 active torsions:
REMARK  status: ('A' for Active; 'I' for Inactive)
REMARK    1  A    between atoms: O_1  and  C_5 
REMARK    2  A    between atoms: O_2  and  C_7 
REMARK    3  A    between atoms: O_2  and  C_13 
REMARK    4  A    between atoms: C_4  and  C_5 
REMARK    5  A    between atoms: C_4  and  C_6 
REMARK    6  A    between atoms: C_5  and  C_7 
ROOT
HETATM    1  O   UNL     1      12.129   4.676  12.931  1.00  0.00    -0.385 OA
HETATM    2  H   UNL     1      11.531   5.053  12.266  1.00  0.00     0.210 HD
ENDROOT
BRANCH   1   3
HETATM    3  C   UNL     1      13.164   5.606  13.219  1.00  0.00     0.221 C 
BRANCH   3   4
HETATM    4  C   UNL     1      13.687   6.185  11.902  1.00  0.00     0.080 C 
BRANCH   4   5
HETATM    5  C   UNL     1      15.177   5.997  11.751  1.00  0.00    -0.055 A 
HETATM    6  C   UNL     1      15.761   6.176  10.506  1.00  0.00     0.007 A 
HETATM    7  C   UNL     1      17.138   6.002  10.366  1.00  0.00     0.001 A 
HETATM    8  C   UNL     1      17.912   5.651  11.473  1.00  0.00     0.000 A 
HETATM    9  C   UNL     1      17.311   5.474  12.718  1.00  0.00     0.001 A 
HETATM   10  C   UNL     1      15.934   5.648  12.858  1.00  0.00     0.007 A 
ENDBRANCH   4   5
ENDBRANCH   3   4
BRANCH   3  11
HETATM   11  C   UNL     1      12.574   6.697  14.090  1.00  0.00     0.288 C 
HETATM   12  O   UNL     1      11.392   7.016  14.101  1.00  0.00    -0.262 OA
BRANCH  11  13
HETATM   13  O   UNL     1      13.554   7.242  14.870  1.00  0.00    -0.320 OA
BRANCH  13  14
HETATM   14  C   UNL     1      13.970   6.445  15.984  1.00  0.00     0.174 C 
HETATM   15  C   UNL     1      15.386   6.827  16.362  1.00  0.00     0.034 C 
ENDBRANCH  13  14
ENDBRANCH  11  13
ENDBRANCH   3  11
ENDBRANCH   1   3
TORSDOF 6
ENDMDL
MODEL 6
REMARK VINA RESULT:      -6.1      1.333      3.110
REMARK  6 active torsions:
REMARK  status: ('A' for Active; 'I' for Inactive)
REMARK    1  A    between atoms: O_1  and  C_5 
REMARK    2  A    between atoms: O_2  and  C_7 
REMARK    3  A    between atoms: O_2  and  C_13 
REMARK    4  A    between atoms: C_4  and  C_5 
REMARK    5  A    between atoms: C_4  and  C_6 
REMARK    6  A    between atoms: C_5  and  C_7 
ROOT
HETATM    1  O   UNL     1      11.453   5.175  10.661  1.00  0.00    -0.385 OA
HETATM    2  H   UNL     1      10.837   4.542  11.061  1.00  0.00     0.210 HD
ENDROOT
BRANCH   1   3
HETATM    3  C   UNL     1      12.686   5.145  11.368  1.00  0.00     0.221 C 
BRANCH   3   4
HETATM    4  C   UNL     1      13.540   6.334  10.919  1.00  0.00     0.080 C 
BRANCH   4   5
HETATM    5  C   UNL     1      15.012   6.095  11.153  1.00  0.00    -0.055 A 
HETATM    6  C   UNL     1      15.452   5.760  12.424  1.00  0.00     0.007 A 
HETATM    7  C   UNL     1      16.812   5.540  12.641  1.00  0.00     0.001 A 
HETATM    8  C   UNL     1      17.714   5.658  11.584  1.00  0.00     0.000 A 
HETATM    9  C   UNL     1      17.257   5.995  10.311  1.00  0.00     0.001 A 
HETATM   10  C   UNL     1      15.897   6.215  10.094  1.00  0.00     0.007 A 
ENDBRANCH   4   5
ENDBRANCH   3   4
BRANCH   3  11
HETATM   11  C   UNL     1      12.371   5.237  12.849  1.00  0.00     0.288 C 
HETATM   12  O   UNL     1      12.490   4.315  13.644  1.00  0.00    -0.262 OA
BRANCH  11  13
HETATM   13  O   UNL     1      11.963   6.505  13.152  1.00  0.00    -0.320 OA
BRANCH  13  14
HETATM   14  C   UNL     1      12.030   6.859  14.538  1.00  0.00     0.174 C 
HETATM   15  C   UNL     1      13.402   7.426  14.836  1.00  0.00     0.034 C 
ENDBRANCH  13  14
ENDBRANCH  11  13
ENDBRANCH   3  11
ENDBRANCH   1   3
TORSDOF 6
ENDMDL
MODEL 7
REMARK VINA RESULT:      -6.1      1.350      2.949
REMARK  6 active torsions:
REMARK  status: ('A' for Active; 'I' for Inactive)
REMARK    1  A    between atoms: O_1  and  C_5 
REMARK    2  A    between atoms: O_2  and  C_7 
REMARK    3  A    between atoms: O_2  and  C_13 
REMARK    4  A    between atoms: C_4  and  C_5 
REMARK    5  A    between atoms: C_4  and  C_6 
REMARK    6  A    between atoms: C_5  and  C_7 
ROOT
HETATM    1  O   UNL     1      14.169   5.476   8.464  1.00  0.00    -0.385 OA
HETATM    2  H   UNL     1      15.023   5.876   8.239  1.00  0.00     0.210 HD
ENDROOT
BRANCH   1   3
HETATM    3  C   UNL     1      13.849   5.769   9.817  1.00  0.00     0.221 C 
BRANCH   3   4
HETATM    4  C   UNL     1      14.797   6.859  10.323  1.00  0.00     0.080 C 
BRANCH   4   5
HETATM    5  C   UNL     1      16.004   6.281  11.022  1.00  0.00    -0.055 A 
HETATM    6  C   UNL     1      17.186   6.121  10.315  1.00  0.00     0.007 A 
HETATM    7  C   UNL     1      18.302   5.588  10.960  1.00  0.00     0.001 A 
HETATM    8  C   UNL     1      18.221   5.221  12.304  1.00  0.00     0.000 A 
HETATM    9  C   UNL     1      17.025   5.388  13.002  1.00  0.00     0.001 A 
HETATM   10  C   UNL     1      15.910   5.922  12.356  1.00  0.00     0.007 A 
ENDBRANCH   4   5
ENDBRANCH   3   4
BRANCH   3  11
HETATM   11  C   UNL     1      12.410   6.244   9.859  1.00  0.00     0.288 C 
HETATM   12  O   UNL     1      11.822   6.762   8.918  1.00  0.00    -0.262 OA
BRANCH  11  13
HETATM   13  O   UNL     1      11.876   5.982  11.088  1.00  0.00    -0.320 OA
BRANCH  13  14
HETATM   14  C   UNL     1      12.181   4.693  11.630  1.00  0.00     0.174 C 
HETATM   15  C   UNL     1      12.559   4.849  13.088  1.00  0.00     0.034 C 
ENDBRANCH  13  14
ENDBRANCH  11  13
ENDBRANCH   3  11
ENDBRANCH   1   3
TORSDOF 6
ENDMDL
MODEL 8
REMARK VINA RESULT:      -6.0      2.114      4.264
REMARK  6 active torsions:
REMARK  status: ('A' for Active; 'I' for Inactive)
REMARK    1  A    between atoms: O_1  and  C_5 
REMARK    2  A    between atoms: O_2  and  C_7 
REMARK    3  A    between atoms: O_2  and  C_13 
REMARK    4  A    between atoms: C_4  and  C_5 
REMARK    5  A    between atoms: C_4  and  C_6 
REMARK    6  A    between atoms: C_5  and  C_7 
ROOT
HETATM    1  O   UNL     1      11.918   4.680  14.849  1.00  0.00    -0.385 OA
HETATM    2  H   UNL     1      11.310   5.424  14.715  1.00  0.00     0.210 HD
ENDROOT
BRANCH   1   3
HETATM    3  C   UNL     1      12.975   4.757  13.901  1.00  0.00     0.221 C 
BRANCH   3   4
HETATM    4  C   UNL     1      12.971   6.151  13.269  1.00  0.00     0.080 C 
BRANCH   4   5
HETATM    5  C   UNL     1      13.175   6.097  11.775  1.00  0.00    -0.055 A 
HETATM    6  C   UNL     1      12.071   5.987  10.943  1.00  0.00     0.007 A 
HETATM    7  C   UNL     1      12.259   5.937   9.561  1.00  0.00     0.001 A 
HETATM    8  C   UNL     1      13.547   5.997   9.031  1.00  0.00     0.000 A 
HETATM    9  C   UNL     1      14.648   6.108   9.880  1.00  0.00     0.001 A 
HETATM   10  C   UNL     1      14.460   6.158  11.261  1.00  0.00     0.007 A 
ENDBRANCH   4   5
ENDBRANCH   3   4
BRANCH   3  11
HETATM   11  C   UNL     1      14.275   4.504  14.640  1.00  0.00     0.288 C 
HETATM   12  O   UNL     1      14.720   3.395  14.904  1.00  0.00    -0.262 OA
BRANCH  11  13
HETATM   13  O   UNL     1      14.873   5.695  14.936  1.00  0.00    -0.320 OA
BRANCH  13  14
HETATM   14  C   UNL     1      16.296   5.651  15.083  1.00  0.00     0.174 C 
HETATM   15  C   UNL     1      16.931   5.568  13.711  1.00  0.00     0.034 C 
ENDBRANCH  13  14
ENDBRANCH  11  13
ENDBRANCH   3  11
ENDBRANCH   1   3
TORSDOF 6
ENDMDL
MODEL 9
REMARK VINA RESULT:      -6.0      2.166      4.446
REMARK  6 active torsions:
REMARK  status: ('A' for Active; 'I' for Inactive)
REMARK    1  A    between atoms: O_1  and  C_5 
REMARK    2  A    between atoms: O_2  and  C_7 
REMARK    3  A    between atoms: O_2  and  C_13 
REMARK    4  A    between atoms: C_4  and  C_5 
REMARK    5  A    between atoms: C_4  and  C_6 
REMARK    6  A    between atoms: C_5  and  C_7 
ROOT
HETATM    1  O   UNL     1      11.892   4.704  14.867  1.00  0.00    -0.385 OA
HETATM    2  H   UNL     1      11.185   4.444  14.256  1.00  0.00     0.210 HD
ENDROOT
BRANCH   1   3
HETATM    3  C   UNL     1      12.957   5.296  14.136  1.00  0.00     0.221 C 
BRANCH   3   4
HETATM    4  C   UNL     1      12.375   6.330  13.168  1.00  0.00     0.080 C 
BRANCH   4   5
HETATM    5  C   UNL     1      12.945   6.189  11.778  1.00  0.00    -0.055 A 
HETATM    6  C   UNL     1      14.320   6.214  11.602  1.00  0.00     0.007 A 
HETATM    7  C   UNL     1      14.847   6.084  10.317  1.00  0.00     0.001 A 
HETATM    8  C   UNL     1      13.992   5.931   9.225  1.00  0.00     0.000 A 
HETATM    9  C   UNL     1      12.612   5.908   9.417  1.00  0.00     0.001 A 
HETATM   10  C   UNL     1      12.084   6.038  10.703  1.00  0.00     0.007 A 
ENDBRANCH   4   5
ENDBRANCH   3   4
BRANCH   3  11
HETATM   11  C   UNL     1      13.890   5.956  15.133  1.00  0.00     0.288 C 
HETATM   12  O   UNL     1      13.858   7.142  15.436  1.00  0.00    -0.262 OA
BRANCH  11  13
HETATM   13  O   UNL     1      14.741   5.023  15.651  1.00  0.00    -0.320 OA
BRANCH  13  14
HETATM   14  C   UNL     1      15.370   4.163  14.694  1.00  0.00     0.174 C 
HETATM   15  C   UNL     1      16.654   4.810  14.219  1.00  0.00     0.034 C 
ENDBRANCH  13  14
ENDBRANCH  11  13
ENDBRANCH   3  11
ENDBRANCH   1   3
TORSDOF 6
ENDMDL
