MODEL 1
REMARK VINA RESULT:      -6.1      0.000      0.000
REMARK  6 active torsions:
REMARK  status: ('A' for Active; 'I' for Inactive)
REMARK    1  A    between atoms: O_1  and  C_5 
REMARK    2  A    between atoms: O_2  and  C_7 
REMARK    3  A    between atoms: O_2  and  C_13 
REMARK    4  A    between atoms: C_4  and  C_5 
REMARK    5  A    between atoms: C_4  and  C_6 
REMARK    6  A    between atoms: C_5  and  C_7 
ROOT
HETATM    1  O   UNL     1      16.842   8.114   9.976  1.00  0.00    -0.385 OA
HETATM    2  H   UNL     1      17.712   8.214   9.559  1.00  0.00     0.210 HD
ENDROOT
BRANCH   1   3
HETATM    3  C   UNL     1      16.750   6.828  10.574  1.00  0.00     0.221 C 
BRANCH   3   4
HETATM    4  C   UNL     1      15.480   6.139  10.068  1.00  0.00     0.080 C 
BRANCH   4   5
HETATM    5  C   UNL     1      14.357   6.209  11.075  1.00  0.00    -0.055 A 
HETATM    6  C   UNL     1      14.657   6.421  12.412  1.00  0.00     0.007 A 
HETATM    7  C   UNL     1      13.620   6.485  13.343  1.00  0.00     0.001 A 
HETATM    8  C   UNL     1      12.297   6.336  12.925  1.00  0.00     0.000 A 
HETATM    9  C   UNL     1      12.011   6.123  11.577  1.00  0.00     0.001 A 
HETATM   10  C   UNL     1      13.048   6.059  10.646  1.00  0.00     0.007 A 
ENDBRANCH   4   5
ENDBRANCH   3   4
BRANCH   3  11
HETATM   11  C   UNL     1      17.984   6.043  10.174  1.00  0.00     0.288 C 
HETATM   12  O   UNL     1      18.498   6.074   9.064  1.00  0.00    -0.262 OA
BRANCH  11  13
HETATM   13  O   UNL     1      18.439   5.328  11.245  1.00  0.00    -0.320 OA
BRANCH  13  14
HETATM   14  C   UNL     1      18.179   5.906  12.529  1.00  0.00     0.174 C 
HETATM   15  C   UNL     1      17.899   4.797  13.521  1.00  0.00     0.034 C 
ENDBRANCH  13  14
ENDBRANCH  11  13
ENDBRANCH   3  11
ENDBRANCH   1   3
TORSDOF 6
ENDMDL
MODEL 2
REMARK VINA RESULT:      -6.1      3.116      5.466
REMARK  6 active torsions:
REMARK  status: ('A' for Active; 'I' for Inactive)
REMARK    1  A    between atoms: O_1  and  C_5 
REMARK    2  A    between atoms: O_2  and  C_7 
REMARK    3  A    between atoms: O_2  and  C_13 
REMARK    4  A    between atoms: C_4  and  C_5 
REMARK    5  A    between atoms: C_4  and  C_6 
REMARK    6  A    between atoms: C_5  and  C_7 
ROOT
HETATM    1  O   UNL     1      11.650   6.669  13.350  1.00  0.00    -0.385 OA
HETATM    2  H   UNL     1      11.193   5.877  13.673  1.00  0.00     0.210 HD
ENDROOT
BRANCH   1   3
HETATM    3  C   UNL     1      12.654   6.290  12.418  1.00  0.00     0.221 C 
BRANCH   3   4
HETATM    4  C   UNL     1      13.881   5.797  13.190  1.00  0.00     0.080 C 
BRANCH   4   5
HETATM    5  C   UNL     1      15.150   5.929  12.384  1.00  0.00    -0.055 A 
HETATM    6  C   UNL     1      15.098   6.515  11.129  1.00  0.00     0.007 A 
HETATM    7  C   UNL     1      16.271   6.637  10.383  1.00  0.00     0.001 A 
HETATM    8  C   UNL     1      17.479   6.172  10.902  1.00  0.00     0.000 A 
HETATM    9  C   UNL     1      17.515   5.585  12.167  1.00  0.00     0.001 A 
HETATM   10  C   UNL     1      16.343   5.463  12.913  1.00  0.00     0.007 A 
ENDBRANCH   4   5
ENDBRANCH   3   4
BRANCH   3  11
HETATM   11  C   UNL     1      12.084   5.185  11.550  1.00  0.00     0.288 C 
HETATM   12  O   UNL     1      12.009   4.009  11.881  1.00  0.00    -0.262 OA
BRANCH  11  13
HETATM   13  O   UNL     1      11.650   5.711  10.367  1.00  0.00    -0.320 OA
BRANCH  13  14
HETATM   14  C   UNL     1      12.246   5.155   9.190  1.00  0.00     0.174 C 
HETATM   15  C   UNL     1      12.418   6.253   8.161  1.00  0.00     0.034 C 
ENDBRANCH  13  14
ENDBRANCH  11  13
ENDBRANCH   3  11
ENDBRANCH   1   3
TORSDOF 6
ENDMDL
MODEL 3
REMARK VINA RESULT:      -5.9      3.119      5.461
REMARK  6 active torsions:
REMARK  status: ('A' for Active; 'I' for Inactive)
REMARK    1  A    between atoms: O_1  and  C_5 
REMARK    2  A    between atoms: O_2  and  C_7 
REMARK    3  A    between atoms: O_2  and  C_13 
REMARK    4  A    between atoms: C_4  and  C_5 
REMARK    5  A    between atoms: C_4  and  C_6 
REMARK    6  A    between atoms: C_5  and  C_7 
ROOT
HETATM    1  O   UNL     1      14.053   7.343  15.283  1.00  0.00    -0.385 OA
HETATM    2  H   UNL     1      13.264   7.133  15.808  1.00  0.00     0.210 HD
ENDROOT
BRANCH   1   3
HETATM    3  C   UNL     1      13.905   6.812  13.973  1.00  0.00     0.221 C 
BRANCH   3   4
HETATM    4  C   UNL     1      14.738   5.532  13.863  1.00  0.00     0.080 C 
BRANCH   4   5
HETATM    5  C   UNL     1      15.853   5.666  12.855  1.00  0.00    -0.055 A 
HETATM    6  C   UNL     1      17.137   5.281  13.208  1.00  0.00     0.007 A 
HETATM    7  C   UNL     1      18.168   5.404  12.276  1.00  0.00     0.001 A 
HETATM    8  C   UNL     1      17.901   5.911  11.004  1.00  0.00     0.000 A 
HETATM    9  C   UNL     1      16.604   6.293  10.663  1.00  0.00     0.001 A 
HETATM   10  C   UNL     1      15.573   6.170  11.595  1.00  0.00     0.007 A 
ENDBRANCH   4   5
ENDBRANCH   3   4
BRANCH   3  11
HETATM   11  C   UNL     1      12.433   6.517  13.759  1.00  0.00     0.288 C 
HETATM   12  O   UNL     1      11.523   7.009  14.413  1.00  0.00    -0.262 OA
BRANCH  11  13
HETATM   13  O   UNL     1      12.288   5.648  12.716  1.00  0.00    -0.320 OA
BRANCH  13  14
HETATM   14  C   UNL     1      11.985   6.246  11.451  1.00  0.00     0.174 C 
HETATM   15  C   UNL     1      12.174   5.214  10.360  1.00  0.00     0.034 C 
ENDBRANCH  13  14
ENDBRANCH  11  13
ENDBRANCH   3  11
ENDBRANCH   1   3
TORSDOF 6
ENDMDL
MODEL 4
REMARK VINA RESULT:      -5.9      3.346      5.250
REMARK  6 active torsions:
REMARK  status: ('A' for Active; 'I' for Inactive)
REMARK    1  A    between atoms: O_1  and  C_5 
REMARK    2  A    between atoms: O_2  and  C_7 
REMARK    3  A    between atoms: O_2  and  C_13 
REMARK    4  A    between atoms: C_4  and  C_5 
REMARK    5  A    between atoms: C_4  and  C_6 
REMARK    6  A    between atoms: C_5  and  C_7 
ROOT
HETATM    1  O   UNL     1      12.119   4.683  12.843  1.00  0.00    -0.385 OA
HETATM    2  H   UNL     1      12.150   4.497  11.891  1.00  0.00     0.210 HD
ENDROOT
BRANCH   1   3
HETATM    3  C   UNL     1      13.156   5.594  13.182  1.00  0.00     0.221 C 
BRANCH   3   4
HETATM    4  C   UNL     1      13.692   6.231  11.897  1.00  0.00     0.080 C 
BRANCH   4   5
HETATM    5  C   UNL     1      15.179   6.022  11.739  1.00  0.00    -0.055 A 
HETATM    6  C   UNL     1      15.760   6.201  10.493  1.00  0.00     0.007 A 
HETATM    7  C   UNL     1      17.134   6.008  10.345  1.00  0.00     0.001 A 
HETATM    8  C   UNL     1      17.908   5.639  11.446  1.00  0.00     0.000 A 
HETATM    9  C   UNL     1      17.309   5.462  12.693  1.00  0.00     0.001 A 
HETATM   10  C   UNL     1      15.935   5.655  12.840  1.00  0.00     0.007 A 
ENDBRANCH   4   5
ENDBRANCH   3   4
BRANCH   3  11
HETATM   11  C   UNL     1      12.562   6.647  14.098  1.00  0.00     0.288 C 
HETATM   12  O   UNL     1      11.395   7.013  14.072  1.00  0.00    -0.262 OA
BRANCH  11  13
HETATM   13  O   UNL     1      13.521   7.094  14.962  1.00  0.00    -0.320 OA
BRANCH  13  14
HETATM   14  C   UNL     1      13.896   6.178  15.996  1.00  0.00     0.174 C 
HETATM   15  C   UNL     1      15.323   6.465  16.414  1.00  0.00     0.034 C 
ENDBRANCH  13  14
ENDBRANCH  11  13
ENDBRANCH   3  11
ENDBRANCH   1   3
TORSDOF 6
ENDMDL
MODEL 5
REMARK VINA RESULT:      -5.9      3.081      4.374
REMARK  6 active torsions:
REMARK  status: ('A' for Active; 'I' for Inactive)
REMARK    1  A    between atoms: O_1  and  C_5 
REMARK    2  A    between atoms: O_2  and  C_7 
REMARK    3  A    between atoms: O_2  and  C_13 
REMARK    4  A    between atoms: C_4  and  C_5 
REMARK    5  A    between atoms: C_4  and  C_6 
REMARK    6  A    between atoms: C_5  and  C_7 
ROOT
HETATM    1  O   UNL     1      11.922   4.941  14.853  1.00  0.00    -0.385 OA
HETATM    2  H   UNL     1      12.365   5.119  15.698  1.00  0.00     0.210 HD
ENDROOT
BRANCH   1   3
HETATM    3  C   UNL     1      12.893   4.860  13.818  1.00  0.00     0.221 C 
BRANCH   3   4
HETATM    4  C   UNL     1      13.009   6.228  13.143  1.00  0.00     0.080 C 
BRANCH   4   5
HETATM    5  C   UNL     1      13.169   6.111  11.646  1.00  0.00    -0.055 A 
HETATM    6  C   UNL     1      14.438   6.178  11.092  1.00  0.00     0.007 A 
HETATM    7  C   UNL     1      14.587   6.070   9.709  1.00  0.00     0.001 A 
HETATM    8  C   UNL     1      13.464   5.896   8.899  1.00  0.00     0.000 A 
HETATM    9  C   UNL     1      12.194   5.830   9.471  1.00  0.00     0.001 A 
HETATM   10  C   UNL     1      12.046   5.939  10.854  1.00  0.00     0.007 A 
ENDBRANCH   4   5
ENDBRANCH   3   4
BRANCH   3  11
HETATM   11  C   UNL     1      14.210   4.458  14.452  1.00  0.00     0.288 C 
HETATM   12  O   UNL     1      14.500   3.319  14.791  1.00  0.00    -0.262 OA
BRANCH  11  13
HETATM   13  O   UNL     1      15.020   5.553  14.559  1.00  0.00    -0.320 OA
BRANCH  13  14
HETATM   14  C   UNL     1      16.412   5.275  14.748  1.00  0.00     0.174 C 
HETATM   15  C   UNL     1      17.138   5.484  13.436  1.00  0.00     0.034 C 
ENDBRANCH  13  14
ENDBRANCH  11  13
ENDBRANCH   3  11
ENDBRANCH   1   3
TORSDOF 6
ENDMDL
MODEL 6
REMARK VINA RESULT:      -5.9      3.677      5.086
REMARK  6 active torsions:
REMARK  status: ('A' for Active; 'I' for Inactive)
REMARK    1  A    between atoms: O_1  and  C_5 
REMARK    2  A    between atoms: O_2  and  C_7 
REMARK    3  A    between atoms: O_2  and  C_13 
REMARK    4  A    between atoms: C_4  and  C_5 
REMARK    5  A    between atoms: C_4  and  C_6 
REMARK    6  A    between atoms: C_5  and  C_7 
ROOT
HETATM    1  O   UNL     1      11.907   4.573  14.873  1.00  0.00    -0.385 OA
HETATM    2  H   UNL     1      12.437   3.840  15.223  1.00  0.00     0.210 HD
ENDROOT
BRANCH   1   3
HETATM    3  C   UNL     1      12.770   5.613  14.432  1.00  0.00     0.221 C 
BRANCH   3   4
HETATM    4  C   UNL     1      12.113   6.329  13.249  1.00  0.00     0.080 C 
BRANCH   4   5
HETATM    5  C   UNL     1      12.938   6.219  11.990  1.00  0.00    -0.055 A 
HETATM    6  C   UNL     1      14.321   6.252  12.079  1.00  0.00     0.007 A 
HETATM    7  C   UNL     1      15.083   6.150  10.915  1.00  0.00     0.001 A 
HETATM    8  C   UNL     1      14.453   6.016   9.678  1.00  0.00     0.000 A 
HETATM    9  C   UNL     1      13.061   5.984   9.604  1.00  0.00     0.001 A 
HETATM   10  C   UNL     1      12.298   6.086  10.768  1.00  0.00     0.007 A 
ENDBRANCH   4   5
ENDBRANCH   3   4
BRANCH   3  11
HETATM   11  C   UNL     1      12.974   6.566  15.593  1.00  0.00     0.288 C 
HETATM   12  O   UNL     1      12.090   6.934  16.355  1.00  0.00    -0.262 OA
BRANCH  11  13
HETATM   13  O   UNL     1      14.290   6.921  15.667  1.00  0.00    -0.320 OA
BRANCH  13  14
HETATM   14  C   UNL     1      15.211   5.843  15.869  1.00  0.00     0.174 C 
HETATM   15  C   UNL     1      16.516   6.174  15.176  1.00  0.00     0.034 C 
ENDBRANCH  13  14
ENDBRANCH  11  13
ENDBRANCH   3  11
ENDBRANCH   1   3
TORSDOF 6
ENDMDL
MODEL 7
REMARK VINA RESULT:      -5.8      3.082      5.600
REMARK  6 active torsions:
REMARK  status: ('A' for Active; 'I' for Inactive)
REMARK    1  A    between atoms: O_1  and  C_5 
REMARK    2  A    between atoms: O_2  and  C_7 
REMARK    3  A    between atoms: O_2  and  C_13 
REMARK    4  A    between atoms: C_4  and  C_5 
REMARK    5  A    between atoms: C_4  and  C_6 
REMARK    6  A    between atoms: C_5  and  C_7 
ROOT
HETATM    1  O   UNL     1      14.030   6.612  15.414  1.00  0.00    -0.385 OA
HETATM    2  H   UNL     1      13.277   6.159  15.825  1.00  0.00     0.210 HD
ENDROOT
BRANCH   1   3
HETATM    3  C   UNL     1      13.938   6.494  14.000  1.00  0.00     0.221 C 
BRANCH   3   4
HETATM    4  C   UNL     1      14.656   5.215  13.564  1.00  0.00     0.080 C 
BRANCH   4   5
HETATM    5  C   UNL     1      15.844   5.505  12.679  1.00  0.00    -0.055 A 
HETATM    6  C   UNL     1      15.632   5.942  11.380  1.00  0.00     0.007 A 
HETATM    7  C   UNL     1      16.730   6.210  10.562  1.00  0.00     0.001 A 
HETATM    8  C   UNL     1      18.024   6.038  11.053  1.00  0.00     0.000 A 
HETATM    9  C   UNL     1      18.221   5.598  12.361  1.00  0.00     0.001 A 
HETATM   10  C   UNL     1      17.124   5.330  13.180  1.00  0.00     0.007 A 
ENDBRANCH   4   5
ENDBRANCH   3   4
BRANCH   3  11
HETATM   11  C   UNL     1      12.467   6.436  13.637  1.00  0.00     0.288 C 
HETATM   12  O   UNL     1      11.578   7.026  14.239  1.00  0.00    -0.262 OA
BRANCH  11  13
HETATM   13  O   UNL     1      12.298   5.653  12.532  1.00  0.00    -0.320 OA
BRANCH  13  14
HETATM   14  C   UNL     1      12.007   6.354  11.317  1.00  0.00     0.174 C 
HETATM   15  C   UNL     1      12.220   5.418  10.146  1.00  0.00     0.034 C 
ENDBRANCH  13  14
ENDBRANCH  11  13
ENDBRANCH   3  11
ENDBRANCH   1   3
TORSDOF 6
ENDMDL
MODEL 8
REMARK VINA RESULT:      -5.8      3.495      5.004
REMARK  6 active torsions:
REMARK  status: ('A' for Active; 'I' for Inactive)
REMARK    1  A    between atoms: O_1  and  C_5 
REMARK    2  A    between atoms: O_2  and  C_7 
REMARK    3  A    between atoms: O_2  and  C_13 
REMARK    4  A    between atoms: C_4  and  C_5 
REMARK    5  A    between atoms: C_4  and  C_6 
REMARK    6  A    between atoms: C_5  and  C_7 
ROOT
HETATM    1  O   UNL     1      11.911   4.573  14.964  1.00  0.00    -0.385 OA
HETATM    2  H   UNL     1      11.575   4.015  14.245  1.00  0.00     0.210 HD
ENDROOT
BRANCH   1   3
HETATM    3  C   UNL     1      13.012   5.340  14.493  1.00  0.00     0.221 C 
BRANCH   3   4
HETATM    4  C   UNL     1      12.488   6.432  13.557  1.00  0.00     0.080 C 
BRANCH   4   5
HETATM    5  C   UNL     1      13.031   6.287  12.157  1.00  0.00    -0.055 A 
HETATM    6  C   UNL     1      12.148   6.157  11.096  1.00  0.00     0.007 A 
HETATM    7  C   UNL     1      12.649   6.023   9.801  1.00  0.00     0.001 A 
HETATM    8  C   UNL     1      14.027   6.021   9.584  1.00  0.00     0.000 A 
HETATM    9  C   UNL     1      14.903   6.154  10.661  1.00  0.00     0.001 A 
HETATM   10  C   UNL     1      14.402   6.287  11.956  1.00  0.00     0.007 A 
ENDBRANCH   4   5
ENDBRANCH   3   4
BRANCH   3  11
HETATM   11  C   UNL     1      13.699   5.948  15.700  1.00  0.00     0.288 C 
HETATM   12  O   UNL     1      13.121   6.342  16.705  1.00  0.00    -0.262 OA
BRANCH  11  13
HETATM   13  O   UNL     1      15.050   5.961  15.500  1.00  0.00    -0.320 OA
BRANCH  13  14
HETATM   14  C   UNL     1      15.671   4.676  15.396  1.00  0.00     0.174 C 
HETATM   15  C   UNL     1      16.761   4.739  14.347  1.00  0.00     0.034 C 
ENDBRANCH  13  14
ENDBRANCH  11  13
ENDBRANCH   3  11
ENDBRANCH   1   3
TORSDOF 6
ENDMDL
MODEL 9
REMARK VINA RESULT:      -5.6      2.081      5.017
REMARK  6 active torsions:
REMARK  status: ('A' for Active; 'I' for Inactive)
REMARK    1  A    between atoms: O_1  and  C_5 
REMARK    2  A    between atoms: O_2  and  C_7 
REMARK    3  A    between atoms: O_2  and  C_13 
REMARK    4  A    between atoms: C_4  and  C_5 
REMARK    5  A    between atoms: C_4  and  C_6 
REMARK    6  A    between atoms: C_5  and  C_7 
ROOT
HETATM    1  O   UNL     1      16.363   7.205   9.590  1.00  0.00    -0.385 OA
HETATM    2  H   UNL     1      15.719   7.908   9.408  1.00  0.00     0.210 HD
ENDROOT
BRANCH   1   3
HETATM    3  C   UNL     1      15.747   6.189  10.370  1.00  0.00     0.221 C 
BRANCH   3   4
HETATM    4  C   UNL     1      15.898   6.546  11.851  1.00  0.00     0.080 C 
BRANCH   4   5
HETATM    5  C   UNL     1      16.924   5.680  12.542  1.00  0.00    -0.055 A 
HETATM    6  C   UNL     1      16.616   5.109  13.767  1.00  0.00     0.007 A 
HETATM    7  C   UNL     1      17.564   4.309  14.406  1.00  0.00     0.001 A 
HETATM    8  C   UNL     1      18.807   4.092  13.811  1.00  0.00     0.000 A 
HETATM    9  C   UNL     1      19.103   4.674  12.579  1.00  0.00     0.001 A 
HETATM   10  C   UNL     1      18.155   5.473  11.940  1.00  0.00     0.007 A 
ENDBRANCH   4   5
ENDBRANCH   3   4
BRANCH   3  11
HETATM   11  C   UNL     1      14.284   6.128   9.976  1.00  0.00     0.288 C 
HETATM   12  O   UNL     1      13.350   6.155  10.766  1.00  0.00    -0.262 OA
BRANCH  11  13
HETATM   13  O   UNL     1      14.179   6.067   8.616  1.00  0.00    -0.320 OA
BRANCH  13  14
HETATM   14  C   UNL     1      12.845   5.967   8.105  1.00  0.00     0.174 C 
HETATM   15  C   UNL     1      12.565   4.525   7.737  1.00  0.00     0.034 C 
ENDBRANCH  13  14
ENDBRANCH  11  13
ENDBRANCH   3  11
ENDBRANCH   1   3
TORSDOF 6
ENDMDL
