MODEL 1
REMARK VINA RESULT:      -2.9      0.000      0.000
REMARK  0 active torsions:
REMARK  status: ('A' for Active; 'I' for Inactive)
ROOT
ATOM      1  O   UNL A   1      -5.650  -4.830  46.153  1.00  0.00    -0.648 OA
ATOM      2  O   UNL A   1      -4.557  -3.483  47.644  1.00  0.00    -0.648 OA
ATOM      3  C   UNL A   1      -6.719  -2.891  46.948  1.00  0.00     0.129 C 
ATOM      4  C   UNL A   1      -5.524  -3.828  46.910  1.00  0.00     0.168 C 
ENDROOT
TORSDOF 0
ENDMDL
MODEL 2
REMARK VINA RESULT:      -2.9      0.045      1.618
REMARK  0 active torsions:
REMARK  status: ('A' for Active; 'I' for Inactive)
ROOT
ATOM      1  O   UNL A   1      -4.583  -3.511  47.648  1.00  0.00    -0.648 OA
ATOM      2  O   UNL A   1      -5.710  -4.812  46.141  1.00  0.00    -0.648 OA
ATOM      3  C   UNL A   1      -6.733  -2.859  46.948  1.00  0.00     0.129 C 
ATOM      4  C   UNL A   1      -5.558  -3.822  46.909  1.00  0.00     0.168 C 
ENDROOT
TORSDOF 0
ENDMDL
MODEL 3
REMARK VINA RESULT:      -2.8      1.236      2.074
REMARK  0 active torsions:
REMARK  status: ('A' for Active; 'I' for Inactive)
ROOT
ATOM      1  O   UNL A   1      -4.541  -3.500  47.635  1.00  0.00    -0.648 OA
ATOM      2  O   UNL A   1      -6.465  -3.063  46.477  1.00  0.00    -0.648 OA
ATOM      3  C   UNL A   1      -5.704  -5.278  46.625  1.00  0.00     0.129 C 
ATOM      4  C   UNL A   1      -5.554  -3.801  46.945  1.00  0.00     0.168 C 
ENDROOT
TORSDOF 0
ENDMDL
MODEL 4
REMARK VINA RESULT:      -2.7     15.904     16.434
REMARK  0 active torsions:
REMARK  status: ('A' for Active; 'I' for Inactive)
ROOT
ATOM      1  O   UNL A   1       3.484 -10.209  57.587  1.00  0.00    -0.648 OA
ATOM      2  O   UNL A   1       5.376  -8.923  57.611  1.00  0.00    -0.648 OA
ATOM      3  C   UNL A   1       5.485 -11.122  58.422  1.00  0.00     0.129 C 
ATOM      4  C   UNL A   1       4.703  -9.972  57.813  1.00  0.00     0.168 C 
ENDROOT
TORSDOF 0
ENDMDL
MODEL 5
REMARK VINA RESULT:      -2.7     15.948     16.543
REMARK  0 active torsions:
REMARK  status: ('A' for Active; 'I' for Inactive)
ROOT
ATOM      1  O   UNL A   1       5.398  -8.974  57.681  1.00  0.00    -0.648 OA
ATOM      2  O   UNL A   1       3.503 -10.254  57.595  1.00  0.00    -0.648 OA
ATOM      3  C   UNL A   1       5.481 -11.202  58.432  1.00  0.00     0.129 C 
ATOM      4  C   UNL A   1       4.720 -10.026  57.845  1.00  0.00     0.168 C 
ENDROOT
TORSDOF 0
ENDMDL
MODEL 6
REMARK VINA RESULT:      -2.7      3.316      3.670
REMARK  0 active torsions:
REMARK  status: ('A' for Active; 'I' for Inactive)
ROOT
ATOM      1  O   UNL A   1      -9.397  -2.744  46.655  1.00  0.00    -0.648 OA
ATOM      2  O   UNL A   1      -7.239  -2.209  46.119  1.00  0.00    -0.648 OA
ATOM      3  C   UNL A   1      -8.935  -0.638  45.713  1.00  0.00     0.129 C 
ATOM      4  C   UNL A   1      -8.480  -1.999  46.212  1.00  0.00     0.168 C 
ENDROOT
TORSDOF 0
ENDMDL
MODEL 7
REMARK VINA RESULT:      -2.6     15.803     16.408
REMARK  0 active torsions:
REMARK  status: ('A' for Active; 'I' for Inactive)
ROOT
ATOM      1  O   UNL A   1       5.504  -8.764  57.474  1.00  0.00    -0.648 OA
ATOM      2  O   UNL A   1       5.404 -10.659  58.752  1.00  0.00    -0.648 OA
ATOM      3  C   UNL A   1       3.699 -10.247  57.192  1.00  0.00     0.129 C 
ATOM      4  C   UNL A   1       4.997  -9.849  57.872  1.00  0.00     0.168 C 
ENDROOT
TORSDOF 0
ENDMDL
MODEL 8
REMARK VINA RESULT:      -2.6     15.812     16.403
REMARK  0 active torsions:
REMARK  status: ('A' for Active; 'I' for Inactive)
ROOT
ATOM      1  O   UNL A   1       5.380 -10.727  58.743  1.00  0.00    -0.648 OA
ATOM      2  O   UNL A   1       5.474  -8.788  57.533  1.00  0.00    -0.648 OA
ATOM      3  C   UNL A   1       3.681 -10.262  57.182  1.00  0.00     0.129 C 
ATOM      4  C   UNL A   1       4.973  -9.890  57.891  1.00  0.00     0.168 C 
ENDROOT
TORSDOF 0
ENDMDL
MODEL 9
REMARK VINA RESULT:      -2.5      2.835      3.248
REMARK  0 active torsions:
REMARK  status: ('A' for Active; 'I' for Inactive)
ROOT
ATOM      1  O   UNL A   1      -8.793  -2.791  45.206  1.00  0.00    -0.648 OA
ATOM      2  O   UNL A   1      -8.660  -4.475  46.749  1.00  0.00    -0.648 OA
ATOM      3  C   UNL A   1      -7.115  -2.712  46.853  1.00  0.00     0.129 C 
ATOM      4  C   UNL A   1      -8.307  -3.392  46.204  1.00  0.00     0.168 C 
ENDROOT
TORSDOF 0
ENDMDL
