MODEL 1
REMARK VINA RESULT:      -2.9      0.000      0.000
REMARK  0 active torsions:
REMARK  status: ('A' for Active; 'I' for Inactive)
ROOT
ATOM      1  O   UNL A   1      -5.644  -4.829  46.150  1.00  0.00    -0.648 OA
ATOM      2  O   UNL A   1      -4.558  -3.482  47.647  1.00  0.00    -0.648 OA
ATOM      3  C   UNL A   1      -6.720  -2.894  46.947  1.00  0.00     0.129 C 
ATOM      4  C   UNL A   1      -5.523  -3.828  46.910  1.00  0.00     0.168 C 
ENDROOT
TORSDOF 0
ENDMDL
MODEL 2
REMARK VINA RESULT:      -2.9      0.044      1.618
REMARK  0 active torsions:
REMARK  status: ('A' for Active; 'I' for Inactive)
ROOT
ATOM      1  O   UNL A   1      -4.581  -3.509  47.649  1.00  0.00    -0.648 OA
ATOM      2  O   UNL A   1      -5.705  -4.811  46.141  1.00  0.00    -0.648 OA
ATOM      3  C   UNL A   1      -6.732  -2.862  46.950  1.00  0.00     0.129 C 
ATOM      4  C   UNL A   1      -5.555  -3.821  46.910  1.00  0.00     0.168 C 
ENDROOT
TORSDOF 0
ENDMDL
MODEL 3
REMARK VINA RESULT:      -2.8      1.237      2.075
REMARK  0 active torsions:
REMARK  status: ('A' for Active; 'I' for Inactive)
ROOT
ATOM      1  O   UNL A   1      -4.544  -3.497  47.637  1.00  0.00    -0.648 OA
ATOM      2  O   UNL A   1      -6.469  -3.065  46.478  1.00  0.00    -0.648 OA
ATOM      3  C   UNL A   1      -5.697  -5.277  46.620  1.00  0.00     0.129 C 
ATOM      4  C   UNL A   1      -5.555  -3.800  46.945  1.00  0.00     0.168 C 
ENDROOT
TORSDOF 0
ENDMDL
MODEL 4
REMARK VINA RESULT:      -2.8      1.682      2.010
REMARK  0 active torsions:
REMARK  status: ('A' for Active; 'I' for Inactive)
ROOT
ATOM      1  O   UNL A   1      -5.592  -5.248  48.678  1.00  0.00    -0.648 OA
ATOM      2  O   UNL A   1      -4.650  -3.591  47.413  1.00  0.00    -0.648 OA
ATOM      3  C   UNL A   1      -5.586  -5.454  46.334  1.00  0.00     0.129 C 
ATOM      4  C   UNL A   1      -5.243  -4.690  47.601  1.00  0.00     0.168 C 
ENDROOT
TORSDOF 0
ENDMDL
MODEL 5
REMARK VINA RESULT:      -2.7     15.918     16.446
REMARK  0 active torsions:
REMARK  status: ('A' for Active; 'I' for Inactive)
ROOT
ATOM      1  O   UNL A   1       3.486 -10.209  57.608  1.00  0.00    -0.648 OA
ATOM      2  O   UNL A   1       5.385  -8.933  57.620  1.00  0.00    -0.648 OA
ATOM      3  C   UNL A   1       5.490 -11.137  58.420  1.00  0.00     0.129 C 
ATOM      4  C   UNL A   1       4.708  -9.979  57.824  1.00  0.00     0.168 C 
ENDROOT
TORSDOF 0
ENDMDL
MODEL 6
REMARK VINA RESULT:      -2.7     15.915     16.491
REMARK  0 active torsions:
REMARK  status: ('A' for Active; 'I' for Inactive)
ROOT
ATOM      1  O   UNL A   1       5.390  -8.906  57.590  1.00  0.00    -0.648 OA
ATOM      2  O   UNL A   1       3.483 -10.170  57.641  1.00  0.00    -0.648 OA
ATOM      3  C   UNL A   1       5.492 -11.109  58.411  1.00  0.00     0.129 C 
ATOM      4  C   UNL A   1       4.713  -9.946  57.823  1.00  0.00     0.168 C 
ENDROOT
TORSDOF 0
ENDMDL
MODEL 7
REMARK VINA RESULT:      -2.7      3.381      3.877
REMARK  0 active torsions:
REMARK  status: ('A' for Active; 'I' for Inactive)
ROOT
ATOM      1  O   UNL A   1      -7.255  -2.135  46.092  1.00  0.00    -0.648 OA
ATOM      2  O   UNL A   1      -9.410  -2.668  46.646  1.00  0.00    -0.648 OA
ATOM      3  C   UNL A   1      -8.973  -0.592  45.642  1.00  0.00     0.129 C 
ATOM      4  C   UNL A   1      -8.498  -1.931  46.179  1.00  0.00     0.168 C 
ENDROOT
TORSDOF 0
ENDMDL
MODEL 8
REMARK VINA RESULT:      -2.6     15.792     16.377
REMARK  0 active torsions:
REMARK  status: ('A' for Active; 'I' for Inactive)
ROOT
ATOM      1  O   UNL A   1       5.486 -10.854  58.521  1.00  0.00    -0.648 OA
ATOM      2  O   UNL A   1       5.460  -8.783  57.550  1.00  0.00    -0.648 OA
ATOM      3  C   UNL A   1       3.663 -10.243  57.166  1.00  0.00     0.129 C 
ATOM      4  C   UNL A   1       5.003  -9.931  57.810  1.00  0.00     0.168 C 
ENDROOT
TORSDOF 0
ENDMDL
MODEL 9
REMARK VINA RESULT:      -2.6     15.626     16.237
REMARK  0 active torsions:
REMARK  status: ('A' for Active; 'I' for Inactive)
ROOT
ATOM      1  O   UNL A   1       5.393  -8.395  57.224  1.00  0.00    -0.648 OA
ATOM      2  O   UNL A   1       5.941 -10.428  58.118  1.00  0.00    -0.648 OA
ATOM      3  C   UNL A   1       3.800 -10.126  57.206  1.00  0.00     0.129 C 
ATOM      4  C   UNL A   1       5.181  -9.596  57.549  1.00  0.00     0.168 C 
ENDROOT
TORSDOF 0
ENDMDL
