MODEL 1
REMARK VINA RESULT:      -6.7      0.000      0.000
REMARK  4 active torsions:
REMARK  status: ('A' for Active; 'I' for Inactive)
REMARK    1  A    between atoms: O_1  and  C_11 
REMARK    2  A    between atoms: C_4  and  C_5 
REMARK    3  A    between atoms: C_4  and  C_6 
REMARK    4  A    between atoms: C_6  and  C_12 
ROOT
ATOM      1  O   UNL A   1      21.576  -0.531  31.886  1.00  0.00    -0.361 OA
ATOM      2  H   UNL A   1      21.747  -0.092  31.076  1.00  0.00     0.217 HD
ENDROOT
BRANCH   1   3
ATOM      3  C   UNL A   1      21.578  -1.891  31.936  1.00  0.00     0.065 A 
ATOM      4  C   UNL A   1      21.390  -2.632  30.770  1.00  0.00     0.037 A 
ATOM      5  C   UNL A   1      21.390  -4.026  30.820  1.00  0.00     0.010 A 
ATOM      6  C   UNL A   1      21.579  -4.680  32.038  1.00  0.00    -0.058 A 
ATOM      7  C   UNL A   1      21.767  -3.938  33.205  1.00  0.00     0.010 A 
ATOM      8  C   UNL A   1      21.767  -2.545  33.154  1.00  0.00     0.037 A 
BRANCH   6   9
ATOM      9  C   UNL A   1      21.580  -6.169  32.093  1.00  0.00     0.049 C 
BRANCH   9  10
ATOM     10  C   UNL A   1      22.895  -6.767  32.608  1.00  0.00     0.117 C 
BRANCH  10  11
ATOM     11  C   UNL A   1      22.709  -7.461  33.936  1.00  0.00     0.172 C 
ATOM     12  O   UNL A   1      21.486  -8.032  34.066  1.00  0.00    -0.648 OA
ATOM     13  O   UNL A   1      23.576  -7.527  34.797  1.00  0.00    -0.648 OA
ENDBRANCH  10  11
ENDBRANCH   9  10
ENDBRANCH   6   9
ENDBRANCH   1   3
TORSDOF 4
ENDMDL
MODEL 2
REMARK VINA RESULT:      -6.6      0.108      1.398
REMARK  4 active torsions:
REMARK  status: ('A' for Active; 'I' for Inactive)
REMARK    1  A    between atoms: O_1  and  C_11 
REMARK    2  A    between atoms: C_4  and  C_5 
REMARK    3  A    between atoms: C_4  and  C_6 
REMARK    4  A    between atoms: C_6  and  C_12 
ROOT
ATOM      1  O   UNL A   1      21.573  -0.533  32.112  1.00  0.00    -0.361 OA
ATOM      2  H   UNL A   1      21.131  -0.059  31.435  1.00  0.00     0.217 HD
ENDROOT
BRANCH   1   3
ATOM      3  C   UNL A   1      21.579  -1.893  32.096  1.00  0.00     0.065 A 
ATOM      4  C   UNL A   1      21.799  -2.604  33.276  1.00  0.00     0.037 A 
ATOM      5  C   UNL A   1      21.806  -3.998  33.260  1.00  0.00     0.010 A 
ATOM      6  C   UNL A   1      21.593  -4.684  32.063  1.00  0.00    -0.058 A 
ATOM      7  C   UNL A   1      21.373  -3.973  30.884  1.00  0.00     0.010 A 
ATOM      8  C   UNL A   1      21.366  -2.579  30.899  1.00  0.00     0.037 A 
BRANCH   6   9
ATOM      9  C   UNL A   1      21.600  -6.174  32.047  1.00  0.00     0.049 C 
BRANCH   9  10
ATOM     10  C   UNL A   1      22.901  -6.792  32.573  1.00  0.00     0.117 C 
BRANCH  10  11
ATOM     11  C   UNL A   1      22.700  -7.453  33.916  1.00  0.00     0.172 C 
ATOM     12  O   UNL A   1      21.461  -7.984  34.062  1.00  0.00    -0.648 OA
ATOM     13  O   UNL A   1      23.569  -7.529  34.774  1.00  0.00    -0.648 OA
ENDBRANCH  10  11
ENDBRANCH   9  10
ENDBRANCH   6   9
ENDBRANCH   1   3
TORSDOF 4
ENDMDL
MODEL 3
REMARK VINA RESULT:      -6.6      2.305      4.668
REMARK  4 active torsions:
REMARK  status: ('A' for Active; 'I' for Inactive)
REMARK    1  A    between atoms: O_1  and  C_11 
REMARK    2  A    between atoms: C_4  and  C_5 
REMARK    3  A    between atoms: C_4  and  C_6 
REMARK    4  A    between atoms: C_6  and  C_12 
ROOT
ATOM      1  O   UNL A   1      21.678  -6.922  30.974  1.00  0.00    -0.361 OA
ATOM      2  H   UNL A   1      20.875  -7.375  30.807  1.00  0.00     0.217 HD
ENDROOT
BRANCH   1   3
ATOM      3  C   UNL A   1      21.654  -5.663  31.489  1.00  0.00     0.065 A 
ATOM      4  C   UNL A   1      21.209  -4.597  30.707  1.00  0.00     0.037 A 
ATOM      5  C   UNL A   1      21.186  -3.306  31.234  1.00  0.00     0.010 A 
ATOM      6  C   UNL A   1      21.607  -3.080  32.545  1.00  0.00    -0.058 A 
ATOM      7  C   UNL A   1      22.052  -4.146  33.327  1.00  0.00     0.010 A 
ATOM      8  C   UNL A   1      22.076  -5.437  32.800  1.00  0.00     0.037 A 
BRANCH   6   9
ATOM      9  C   UNL A   1      21.582  -1.701  33.109  1.00  0.00     0.049 C 
BRANCH   9  10
ATOM     10  C   UNL A   1      21.340  -1.657  34.622  1.00  0.00     0.117 C 
BRANCH  10  11
ATOM     11  C   UNL A   1      22.596  -1.297  35.378  1.00  0.00     0.172 C 
ATOM     12  O   UNL A   1      22.386  -1.144  36.709  1.00  0.00    -0.648 OA
ATOM     13  O   UNL A   1      23.696  -1.180  34.854  1.00  0.00    -0.648 OA
ENDBRANCH  10  11
ENDBRANCH   9  10
ENDBRANCH   6   9
ENDBRANCH   1   3
TORSDOF 4
ENDMDL
MODEL 4
REMARK VINA RESULT:      -6.5      2.581      4.714
REMARK  4 active torsions:
REMARK  status: ('A' for Active; 'I' for Inactive)
REMARK    1  A    between atoms: O_1  and  C_11 
REMARK    2  A    between atoms: C_4  and  C_5 
REMARK    3  A    between atoms: C_4  and  C_6 
REMARK    4  A    between atoms: C_6  and  C_12 
ROOT
ATOM      1  O   UNL A   1      21.851  -6.688  30.610  1.00  0.00    -0.361 OA
ATOM      2  H   UNL A   1      21.079  -7.074  30.246  1.00  0.00     0.217 HD
ENDROOT
BRANCH   1   3
ATOM      3  C   UNL A   1      21.760  -5.538  31.332  1.00  0.00     0.065 A 
ATOM      4  C   UNL A   1      22.203  -5.507  32.654  1.00  0.00     0.037 A 
ATOM      5  C   UNL A   1      22.109  -4.330  33.395  1.00  0.00     0.010 A 
ATOM      6  C   UNL A   1      21.571  -3.181  32.815  1.00  0.00    -0.058 A 
ATOM      7  C   UNL A   1      21.127  -3.212  31.493  1.00  0.00     0.010 A 
ATOM      8  C   UNL A   1      21.221  -4.389  30.751  1.00  0.00     0.037 A 
BRANCH   6   9
ATOM      9  C   UNL A   1      21.471  -1.922  33.606  1.00  0.00     0.049 C 
BRANCH   9  10
ATOM     10  C   UNL A   1      22.701  -1.640  34.476  1.00  0.00     0.117 C 
BRANCH  10  11
ATOM     11  C   UNL A   1      22.339  -1.535  35.938  1.00  0.00     0.172 C 
ATOM     12  O   UNL A   1      21.931  -2.716  36.466  1.00  0.00    -0.648 OA
ATOM     13  O   UNL A   1      22.427  -0.503  36.589  1.00  0.00    -0.648 OA
ENDBRANCH  10  11
ENDBRANCH   9  10
ENDBRANCH   6   9
ENDBRANCH   1   3
TORSDOF 4
ENDMDL
MODEL 5
REMARK VINA RESULT:      -6.4      1.356      2.195
REMARK  4 active torsions:
REMARK  status: ('A' for Active; 'I' for Inactive)
REMARK    1  A    between atoms: O_1  and  C_11 
REMARK    2  A    between atoms: C_4  and  C_5 
REMARK    3  A    between atoms: C_4  and  C_6 
REMARK    4  A    between atoms: C_6  and  C_12 
ROOT
ATOM      1  O   UNL A   1      19.138  -1.866  29.624  1.00  0.00    -0.361 OA
ATOM      2  H   UNL A   1      18.879  -0.996  29.857  1.00  0.00     0.217 HD
ENDROOT
BRANCH   1   3
ATOM      3  C   UNL A   1      19.916  -2.594  30.471  1.00  0.00     0.065 A 
ATOM      4  C   UNL A   1      20.529  -1.976  31.560  1.00  0.00     0.037 A 
ATOM      5  C   UNL A   1      21.327  -2.721  32.428  1.00  0.00     0.010 A 
ATOM      6  C   UNL A   1      21.512  -4.087  32.206  1.00  0.00    -0.058 A 
ATOM      7  C   UNL A   1      20.898  -4.705  31.117  1.00  0.00     0.010 A 
ATOM      8  C   UNL A   1      20.101  -3.960  30.249  1.00  0.00     0.037 A 
BRANCH   6   9
ATOM      9  C   UNL A   1      22.364  -4.884  33.134  1.00  0.00     0.049 C 
BRANCH   9  10
ATOM     10  C   UNL A   1      22.601  -6.325  32.670  1.00  0.00     0.117 C 
BRANCH  10  11
ATOM     11  C   UNL A   1      22.395  -7.314  33.792  1.00  0.00     0.172 C 
ATOM     12  O   UNL A   1      23.476  -7.423  34.604  1.00  0.00    -0.648 OA
ATOM     13  O   UNL A   1      21.355  -7.934  33.971  1.00  0.00    -0.648 OA
ENDBRANCH  10  11
ENDBRANCH   9  10
ENDBRANCH   6   9
ENDBRANCH   1   3
TORSDOF 4
ENDMDL
MODEL 6
REMARK VINA RESULT:      -6.3      2.841      5.347
REMARK  4 active torsions:
REMARK  status: ('A' for Active; 'I' for Inactive)
REMARK    1  A    between atoms: O_1  and  C_11 
REMARK    2  A    between atoms: C_4  and  C_5 
REMARK    3  A    between atoms: C_4  and  C_6 
REMARK    4  A    between atoms: C_6  and  C_12 
ROOT
ATOM      1  O   UNL A   1      22.508  -2.689  35.207  1.00  0.00    -0.361 OA
ATOM      2  H   UNL A   1      21.962  -2.281  35.850  1.00  0.00     0.217 HD
ENDROOT
BRANCH   1   3
ATOM      3  C   UNL A   1      22.025  -2.926  33.956  1.00  0.00     0.065 A 
ATOM      4  C   UNL A   1      21.453  -1.888  33.222  1.00  0.00     0.037 A 
ATOM      5  C   UNL A   1      20.957  -2.129  31.941  1.00  0.00     0.010 A 
ATOM      6  C   UNL A   1      21.032  -3.411  31.394  1.00  0.00    -0.058 A 
ATOM      7  C   UNL A   1      21.604  -4.449  32.129  1.00  0.00     0.010 A 
ATOM      8  C   UNL A   1      22.101  -4.207  33.409  1.00  0.00     0.037 A 
BRANCH   6   9
ATOM      9  C   UNL A   1      20.503  -3.669  30.025  1.00  0.00     0.049 C 
BRANCH   9  10
ATOM     10  C   UNL A   1      19.421  -2.677  29.583  1.00  0.00     0.117 C 
BRANCH  10  11
ATOM     11  C   UNL A   1      19.590  -2.274  28.138  1.00  0.00     0.172 C 
ATOM     12  O   UNL A   1      20.881  -2.321  27.725  1.00  0.00    -0.648 OA
ATOM     13  O   UNL A   1      18.661  -1.964  27.404  1.00  0.00    -0.648 OA
ENDBRANCH  10  11
ENDBRANCH   9  10
ENDBRANCH   6   9
ENDBRANCH   1   3
TORSDOF 4
ENDMDL
MODEL 7
REMARK VINA RESULT:      -6.3      1.502      2.283
REMARK  4 active torsions:
REMARK  status: ('A' for Active; 'I' for Inactive)
REMARK    1  A    between atoms: O_1  and  C_11 
REMARK    2  A    between atoms: C_4  and  C_5 
REMARK    3  A    between atoms: C_4  and  C_6 
REMARK    4  A    between atoms: C_6  and  C_12 
ROOT
ATOM      1  O   UNL A   1      21.590  -0.518  31.726  1.00  0.00    -0.361 OA
ATOM      2  H   UNL A   1      20.779  -0.107  31.500  1.00  0.00     0.217 HD
ENDROOT
BRANCH   1   3
ATOM      3  C   UNL A   1      21.613  -1.835  32.066  1.00  0.00     0.065 A 
ATOM      4  C   UNL A   1      21.889  -2.211  33.381  1.00  0.00     0.037 A 
ATOM      5  C   UNL A   1      21.914  -3.561  33.730  1.00  0.00     0.010 A 
ATOM      6  C   UNL A   1      21.664  -4.537  32.764  1.00  0.00    -0.058 A 
ATOM      7  C   UNL A   1      21.388  -4.160  31.450  1.00  0.00     0.010 A 
ATOM      8  C   UNL A   1      21.363  -2.811  31.100  1.00  0.00     0.037 A 
BRANCH   6   9
ATOM      9  C   UNL A   1      21.690  -5.980  33.138  1.00  0.00     0.049 C 
BRANCH   9  10
ATOM     10  C   UNL A   1      23.062  -6.640  32.957  1.00  0.00     0.117 C 
BRANCH  10  11
ATOM     11  C   UNL A   1      23.122  -7.461  31.691  1.00  0.00     0.172 C 
ATOM     12  O   UNL A   1      24.315  -8.083  31.523  1.00  0.00    -0.648 OA
ATOM     13  O   UNL A   1      22.187  -7.579  30.910  1.00  0.00    -0.648 OA
ENDBRANCH  10  11
ENDBRANCH   9  10
ENDBRANCH   6   9
ENDBRANCH   1   3
TORSDOF 4
ENDMDL
MODEL 8
REMARK VINA RESULT:      -6.3      2.830      5.257
REMARK  4 active torsions:
REMARK  status: ('A' for Active; 'I' for Inactive)
REMARK    1  A    between atoms: O_1  and  C_11 
REMARK    2  A    between atoms: C_4  and  C_5 
REMARK    3  A    between atoms: C_4  and  C_6 
REMARK    4  A    between atoms: C_6  and  C_12 
ROOT
ATOM      1  O   UNL A   1      22.610  -2.673  35.176  1.00  0.00    -0.361 OA
ATOM      2  H   UNL A   1      23.525  -2.796  35.336  1.00  0.00     0.217 HD
ENDROOT
BRANCH   1   3
ATOM      3  C   UNL A   1      22.092  -2.947  33.948  1.00  0.00     0.065 A 
ATOM      4  C   UNL A   1      22.140  -4.247  33.445  1.00  0.00     0.037 A 
ATOM      5  C   UNL A   1      21.611  -4.529  32.186  1.00  0.00     0.010 A 
ATOM      6  C   UNL A   1      21.031  -3.510  31.429  1.00  0.00    -0.058 A 
ATOM      7  C   UNL A   1      20.982  -2.210  31.932  1.00  0.00     0.010 A 
ATOM      8  C   UNL A   1      21.512  -1.928  33.191  1.00  0.00     0.037 A 
BRANCH   6   9
ATOM      9  C   UNL A   1      20.464  -3.811  30.084  1.00  0.00     0.049 C 
BRANCH   9  10
ATOM     10  C   UNL A   1      19.492  -2.742  29.570  1.00  0.00     0.117 C 
BRANCH  10  11
ATOM     11  C   UNL A   1      19.838  -2.300  28.169  1.00  0.00     0.172 C 
ATOM     12  O   UNL A   1      18.789  -1.739  27.518  1.00  0.00    -0.648 OA
ATOM     13  O   UNL A   1      20.954  -2.410  27.676  1.00  0.00    -0.648 OA
ENDBRANCH  10  11
ENDBRANCH   9  10
ENDBRANCH   6   9
ENDBRANCH   1   3
TORSDOF 4
ENDMDL
MODEL 9
REMARK VINA RESULT:      -6.2      2.966      4.855
REMARK  4 active torsions:
REMARK  status: ('A' for Active; 'I' for Inactive)
REMARK    1  A    between atoms: O_1  and  C_11 
REMARK    2  A    between atoms: C_4  and  C_5 
REMARK    3  A    between atoms: C_4  and  C_6 
REMARK    4  A    between atoms: C_6  and  C_12 
ROOT
ATOM      1  O   UNL A   1      22.532  -2.694  35.426  1.00  0.00    -0.361 OA
ATOM      2  H   UNL A   1      22.622  -3.476  35.934  1.00  0.00     0.217 HD
ENDROOT
BRANCH   1   3
ATOM      3  C   UNL A   1      22.119  -2.769  34.131  1.00  0.00     0.065 A 
ATOM      4  C   UNL A   1      21.719  -1.615  33.458  1.00  0.00     0.037 A 
ATOM      5  C   UNL A   1      21.295  -1.690  32.133  1.00  0.00     0.010 A 
ATOM      6  C   UNL A   1      21.269  -2.922  31.478  1.00  0.00    -0.058 A 
ATOM      7  C   UNL A   1      21.669  -4.077  32.150  1.00  0.00     0.010 A 
ATOM      8  C   UNL A   1      22.093  -4.001  33.476  1.00  0.00     0.037 A 
BRANCH   6   9
ATOM      9  C   UNL A   1      20.816  -3.004  30.060  1.00  0.00     0.049 C 
BRANCH   9  10
ATOM     10  C   UNL A   1      19.878  -4.183  29.778  1.00  0.00     0.117 C 
BRANCH  10  11
ATOM     11  C   UNL A   1      18.801  -3.814  28.786  1.00  0.00     0.172 C 
ATOM     12  O   UNL A   1      17.822  -4.749  28.698  1.00  0.00    -0.648 OA
ATOM     13  O   UNL A   1      18.792  -2.771  28.146  1.00  0.00    -0.648 OA
ENDBRANCH  10  11
ENDBRANCH   9  10
ENDBRANCH   6   9
ENDBRANCH   1   3
TORSDOF 4
ENDMDL
