MODEL 1
REMARK VINA RESULT:      -6.7      0.000      0.000
REMARK  4 active torsions:
REMARK  status: ('A' for Active; 'I' for Inactive)
REMARK    1  A    between atoms: O_1  and  C_11 
REMARK    2  A    between atoms: C_4  and  C_5 
REMARK    3  A    between atoms: C_4  and  C_6 
REMARK    4  A    between atoms: C_6  and  C_12 
ROOT
ATOM      1  O   UNL A   1      21.588  -0.519  31.938  1.00  0.00    -0.361 OA
ATOM      2  H   UNL A   1      21.524  -0.073  31.116  1.00  0.00     0.217 HD
ENDROOT
BRANCH   1   3
ATOM      3  C   UNL A   1      21.585  -1.880  31.975  1.00  0.00     0.065 A 
ATOM      4  C   UNL A   1      21.378  -2.609  30.805  1.00  0.00     0.037 A 
ATOM      5  C   UNL A   1      21.373  -4.003  30.842  1.00  0.00     0.010 A 
ATOM      6  C   UNL A   1      21.576  -4.669  32.051  1.00  0.00    -0.058 A 
ATOM      7  C   UNL A   1      21.784  -3.940  33.221  1.00  0.00     0.010 A 
ATOM      8  C   UNL A   1      21.788  -2.546  33.184  1.00  0.00     0.037 A 
BRANCH   6   9
ATOM      9  C   UNL A   1      21.572  -6.159  32.091  1.00  0.00     0.049 C 
BRANCH   9  10
ATOM     10  C   UNL A   1      22.881  -6.767  32.609  1.00  0.00     0.117 C 
BRANCH  10  11
ATOM     11  C   UNL A   1      22.687  -7.462  33.935  1.00  0.00     0.172 C 
ATOM     12  O   UNL A   1      21.445  -7.990  34.076  1.00  0.00    -0.648 OA
ATOM     13  O   UNL A   1      23.561  -7.566  34.785  1.00  0.00    -0.648 OA
ENDBRANCH  10  11
ENDBRANCH   9  10
ENDBRANCH   6   9
ENDBRANCH   1   3
TORSDOF 4
ENDMDL
MODEL 2
REMARK VINA RESULT:      -6.7      0.028      1.395
REMARK  4 active torsions:
REMARK  status: ('A' for Active; 'I' for Inactive)
REMARK    1  A    between atoms: O_1  and  C_11 
REMARK    2  A    between atoms: C_4  and  C_5 
REMARK    3  A    between atoms: C_4  and  C_6 
REMARK    4  A    between atoms: C_6  and  C_12 
ROOT
ATOM      1  O   UNL A   1      21.586  -0.523  31.897  1.00  0.00    -0.361 OA
ATOM      2  H   UNL A   1      21.728  -0.085  31.081  1.00  0.00     0.217 HD
ENDROOT
BRANCH   1   3
ATOM      3  C   UNL A   1      21.582  -1.883  31.946  1.00  0.00     0.065 A 
ATOM      4  C   UNL A   1      21.765  -2.538  33.164  1.00  0.00     0.037 A 
ATOM      5  C   UNL A   1      21.763  -3.932  33.215  1.00  0.00     0.010 A 
ATOM      6  C   UNL A   1      21.577  -4.672  32.047  1.00  0.00    -0.058 A 
ATOM      7  C   UNL A   1      21.393  -4.017  30.829  1.00  0.00     0.010 A 
ATOM      8  C   UNL A   1      21.396  -2.624  30.778  1.00  0.00     0.037 A 
BRANCH   6   9
ATOM      9  C   UNL A   1      21.573  -6.162  32.101  1.00  0.00     0.049 C 
BRANCH   9  10
ATOM     10  C   UNL A   1      22.886  -6.764  32.613  1.00  0.00     0.117 C 
BRANCH  10  11
ATOM     11  C   UNL A   1      22.699  -7.466  33.937  1.00  0.00     0.172 C 
ATOM     12  O   UNL A   1      21.472  -8.029  34.066  1.00  0.00    -0.648 OA
ATOM     13  O   UNL A   1      23.568  -7.544  34.796  1.00  0.00    -0.648 OA
ENDBRANCH  10  11
ENDBRANCH   9  10
ENDBRANCH   6   9
ENDBRANCH   1   3
TORSDOF 4
ENDMDL
MODEL 3
REMARK VINA RESULT:      -6.6      2.256      4.675
REMARK  4 active torsions:
REMARK  status: ('A' for Active; 'I' for Inactive)
REMARK    1  A    between atoms: O_1  and  C_11 
REMARK    2  A    between atoms: C_4  and  C_5 
REMARK    3  A    between atoms: C_4  and  C_6 
REMARK    4  A    between atoms: C_6  and  C_12 
ROOT
ATOM      1  O   UNL A   1      21.903  -7.016  31.179  1.00  0.00    -0.361 OA
ATOM      2  H   UNL A   1      22.715  -7.481  31.242  1.00  0.00     0.217 HD
ENDROOT
BRANCH   1   3
ATOM      3  C   UNL A   1      21.812  -5.741  31.643  1.00  0.00     0.065 A 
ATOM      4  C   UNL A   1      21.378  -4.720  30.798  1.00  0.00     0.037 A 
ATOM      5  C   UNL A   1      21.285  -3.412  31.273  1.00  0.00     0.010 A 
ATOM      6  C   UNL A   1      21.628  -3.124  32.595  1.00  0.00    -0.058 A 
ATOM      7  C   UNL A   1      22.063  -4.144  33.439  1.00  0.00     0.010 A 
ATOM      8  C   UNL A   1      22.155  -5.452  32.965  1.00  0.00     0.037 A 
BRANCH   6   9
ATOM      9  C   UNL A   1      21.529  -1.726  33.103  1.00  0.00     0.049 C 
BRANCH   9  10
ATOM     10  C   UNL A   1      21.292  -1.634  34.615  1.00  0.00     0.117 C 
BRANCH  10  11
ATOM     11  C   UNL A   1      22.566  -1.316  35.360  1.00  0.00     0.172 C 
ATOM     12  O   UNL A   1      22.378  -1.197  36.698  1.00  0.00    -0.648 OA
ATOM     13  O   UNL A   1      23.660  -1.202  34.823  1.00  0.00    -0.648 OA
ENDBRANCH  10  11
ENDBRANCH   9  10
ENDBRANCH   6   9
ENDBRANCH   1   3
TORSDOF 4
ENDMDL
MODEL 4
REMARK VINA RESULT:      -6.4      1.357      2.209
REMARK  4 active torsions:
REMARK  status: ('A' for Active; 'I' for Inactive)
REMARK    1  A    between atoms: O_1  and  C_11 
REMARK    2  A    between atoms: C_4  and  C_5 
REMARK    3  A    between atoms: C_4  and  C_6 
REMARK    4  A    between atoms: C_6  and  C_12 
ROOT
ATOM      1  O   UNL A   1      19.184  -1.922  29.595  1.00  0.00    -0.361 OA
ATOM      2  H   UNL A   1      19.580  -1.283  29.036  1.00  0.00     0.217 HD
ENDROOT
BRANCH   1   3
ATOM      3  C   UNL A   1      19.950  -2.622  30.475  1.00  0.00     0.065 A 
ATOM      4  C   UNL A   1      20.498  -1.982  31.587  1.00  0.00     0.037 A 
ATOM      5  C   UNL A   1      21.283  -2.699  32.489  1.00  0.00     0.010 A 
ATOM      6  C   UNL A   1      21.522  -4.058  32.279  1.00  0.00    -0.058 A 
ATOM      7  C   UNL A   1      20.974  -4.698  31.168  1.00  0.00     0.010 A 
ATOM      8  C   UNL A   1      20.188  -3.981  30.266  1.00  0.00     0.037 A 
BRANCH   6   9
ATOM      9  C   UNL A   1      22.361  -4.825  33.244  1.00  0.00     0.049 C 
BRANCH   9  10
ATOM     10  C   UNL A   1      22.739  -6.228  32.754  1.00  0.00     0.117 C 
BRANCH  10  11
ATOM     11  C   UNL A   1      22.418  -7.283  33.786  1.00  0.00     0.172 C 
ATOM     12  O   UNL A   1      23.460  -7.544  34.614  1.00  0.00    -0.648 OA
ATOM     13  O   UNL A   1      21.328  -7.829  33.886  1.00  0.00    -0.648 OA
ENDBRANCH  10  11
ENDBRANCH   9  10
ENDBRANCH   6   9
ENDBRANCH   1   3
TORSDOF 4
ENDMDL
MODEL 5
REMARK VINA RESULT:      -6.4      2.863      5.318
REMARK  4 active torsions:
REMARK  status: ('A' for Active; 'I' for Inactive)
REMARK    1  A    between atoms: O_1  and  C_11 
REMARK    2  A    between atoms: C_4  and  C_5 
REMARK    3  A    between atoms: C_4  and  C_6 
REMARK    4  A    between atoms: C_6  and  C_12 
ROOT
ATOM      1  O   UNL A   1      22.621  -2.623  35.215  1.00  0.00    -0.361 OA
ATOM      2  H   UNL A   1      23.485  -2.923  35.422  1.00  0.00     0.217 HD
ENDROOT
BRANCH   1   3
ATOM      3  C   UNL A   1      22.089  -2.878  33.989  1.00  0.00     0.065 A 
ATOM      4  C   UNL A   1      22.148  -4.166  33.457  1.00  0.00     0.037 A 
ATOM      5  C   UNL A   1      21.604  -4.428  32.200  1.00  0.00     0.010 A 
ATOM      6  C   UNL A   1      21.000  -3.401  31.473  1.00  0.00    -0.058 A 
ATOM      7  C   UNL A   1      20.942  -2.113  32.005  1.00  0.00     0.010 A 
ATOM      8  C   UNL A   1      21.485  -1.851  33.262  1.00  0.00     0.037 A 
BRANCH   6   9
ATOM      9  C   UNL A   1      20.418  -3.680  30.130  1.00  0.00     0.049 C 
BRANCH   9  10
ATOM     10  C   UNL A   1      19.434  -2.608  29.648  1.00  0.00     0.117 C 
BRANCH  10  11
ATOM     11  C   UNL A   1      19.631  -2.288  28.185  1.00  0.00     0.172 C 
ATOM     12  O   UNL A   1      20.839  -2.687  27.716  1.00  0.00    -0.648 OA
ATOM     13  O   UNL A   1      18.783  -1.749  27.486  1.00  0.00    -0.648 OA
ENDBRANCH  10  11
ENDBRANCH   9  10
ENDBRANCH   6   9
ENDBRANCH   1   3
TORSDOF 4
ENDMDL
MODEL 6
REMARK VINA RESULT:      -6.3      1.597      1.946
REMARK  4 active torsions:
REMARK  status: ('A' for Active; 'I' for Inactive)
REMARK    1  A    between atoms: O_1  and  C_11 
REMARK    2  A    between atoms: C_4  and  C_5 
REMARK    3  A    between atoms: C_4  and  C_6 
REMARK    4  A    between atoms: C_6  and  C_12 
ROOT
ATOM      1  O   UNL A   1      19.104  -1.935  29.553  1.00  0.00    -0.361 OA
ATOM      2  H   UNL A   1      18.206  -1.772  29.765  1.00  0.00     0.217 HD
ENDROOT
BRANCH   1   3
ATOM      3  C   UNL A   1      19.890  -2.634  30.417  1.00  0.00     0.065 A 
ATOM      4  C   UNL A   1      20.147  -3.986  30.189  1.00  0.00     0.037 A 
ATOM      5  C   UNL A   1      20.951  -4.703  31.074  1.00  0.00     0.010 A 
ATOM      6  C   UNL A   1      21.500  -4.068  32.189  1.00  0.00    -0.058 A 
ATOM      7  C   UNL A   1      21.244  -2.716  32.416  1.00  0.00     0.010 A 
ATOM      8  C   UNL A   1      20.439  -1.999  31.532  1.00  0.00     0.037 A 
BRANCH   6   9
ATOM      9  C   UNL A   1      22.361  -4.834  33.134  1.00  0.00     0.049 C 
BRANCH   9  10
ATOM     10  C   UNL A   1      21.866  -6.260  33.403  1.00  0.00     0.117 C 
BRANCH  10  11
ATOM     11  C   UNL A   1      23.014  -7.223  33.584  1.00  0.00     0.172 C 
ATOM     12  O   UNL A   1      23.643  -7.520  32.419  1.00  0.00    -0.648 OA
ATOM     13  O   UNL A   1      23.363  -7.672  34.668  1.00  0.00    -0.648 OA
ENDBRANCH  10  11
ENDBRANCH   9  10
ENDBRANCH   6   9
ENDBRANCH   1   3
TORSDOF 4
ENDMDL
MODEL 7
REMARK VINA RESULT:      -6.3      3.278      4.357
REMARK  4 active torsions:
REMARK  status: ('A' for Active; 'I' for Inactive)
REMARK    1  A    between atoms: O_1  and  C_11 
REMARK    2  A    between atoms: C_4  and  C_5 
REMARK    3  A    between atoms: C_4  and  C_6 
REMARK    4  A    between atoms: C_6  and  C_12 
ROOT
ATOM      1  O   UNL A   1      19.138  -3.645  28.520  1.00  0.00    -0.361 OA
ATOM      2  H   UNL A   1      18.520  -4.341  28.411  1.00  0.00     0.217 HD
ENDROOT
BRANCH   1   3
ATOM      3  C   UNL A   1      19.830  -3.527  29.685  1.00  0.00     0.065 A 
ATOM      4  C   UNL A   1      19.775  -2.338  30.413  1.00  0.00     0.037 A 
ATOM      5  C   UNL A   1      20.485  -2.216  31.606  1.00  0.00     0.010 A 
ATOM      6  C   UNL A   1      21.252  -3.284  32.074  1.00  0.00    -0.058 A 
ATOM      7  C   UNL A   1      21.307  -4.472  31.347  1.00  0.00     0.010 A 
ATOM      8  C   UNL A   1      20.597  -4.595  30.153  1.00  0.00     0.037 A 
BRANCH   6   9
ATOM      9  C   UNL A   1      22.010  -3.154  33.351  1.00  0.00     0.049 C 
BRANCH   9  10
ATOM     10  C   UNL A   1      21.626  -1.920  34.175  1.00  0.00     0.117 C 
BRANCH  10  11
ATOM     11  C   UNL A   1      22.543  -1.733  35.360  1.00  0.00     0.172 C 
ATOM     12  O   UNL A   1      23.754  -1.230  35.015  1.00  0.00    -0.648 OA
ATOM     13  O   UNL A   1      22.223  -1.981  36.515  1.00  0.00    -0.648 OA
ENDBRANCH  10  11
ENDBRANCH   9  10
ENDBRANCH   6   9
ENDBRANCH   1   3
TORSDOF 4
ENDMDL
MODEL 8
REMARK VINA RESULT:      -6.3      2.825      5.229
REMARK  4 active torsions:
REMARK  status: ('A' for Active; 'I' for Inactive)
REMARK    1  A    between atoms: O_1  and  C_11 
REMARK    2  A    between atoms: C_4  and  C_5 
REMARK    3  A    between atoms: C_4  and  C_6 
REMARK    4  A    between atoms: C_6  and  C_12 
ROOT
ATOM      1  O   UNL A   1      22.637  -2.679  35.177  1.00  0.00    -0.361 OA
ATOM      2  H   UNL A   1      23.345  -3.199  35.504  1.00  0.00     0.217 HD
ENDROOT
BRANCH   1   3
ATOM      3  C   UNL A   1      22.104  -2.949  33.954  1.00  0.00     0.065 A 
ATOM      4  C   UNL A   1      21.504  -1.930  33.214  1.00  0.00     0.037 A 
ATOM      5  C   UNL A   1      20.957  -2.206  31.961  1.00  0.00     0.010 A 
ATOM      6  C   UNL A   1      21.010  -3.502  31.447  1.00  0.00    -0.058 A 
ATOM      7  C   UNL A   1      21.610  -4.521  32.187  1.00  0.00     0.010 A 
ATOM      8  C   UNL A   1      22.157  -4.245  33.439  1.00  0.00     0.037 A 
BRANCH   6   9
ATOM      9  C   UNL A   1      20.426  -3.797  30.107  1.00  0.00     0.049 C 
BRANCH   9  10
ATOM     10  C   UNL A   1      19.484  -2.704  29.590  1.00  0.00     0.117 C 
BRANCH  10  11
ATOM     11  C   UNL A   1      19.821  -2.303  28.174  1.00  0.00     0.172 C 
ATOM     12  O   UNL A   1      18.775  -1.732  27.525  1.00  0.00    -0.648 OA
ATOM     13  O   UNL A   1      20.926  -2.449  27.669  1.00  0.00    -0.648 OA
ENDBRANCH  10  11
ENDBRANCH   9  10
ENDBRANCH   6   9
ENDBRANCH   1   3
TORSDOF 4
ENDMDL
MODEL 9
REMARK VINA RESULT:      -6.2      1.624      2.374
REMARK  4 active torsions:
REMARK  status: ('A' for Active; 'I' for Inactive)
REMARK    1  A    between atoms: O_1  and  C_11 
REMARK    2  A    between atoms: C_4  and  C_5 
REMARK    3  A    between atoms: C_4  and  C_6 
REMARK    4  A    between atoms: C_6  and  C_12 
ROOT
ATOM      1  O   UNL A   1      21.534  -0.627  31.923  1.00  0.00    -0.361 OA
ATOM      2  H   UNL A   1      20.715  -0.172  31.926  1.00  0.00     0.217 HD
ENDROOT
BRANCH   1   3
ATOM      3  C   UNL A   1      21.560  -1.980  32.066  1.00  0.00     0.065 A 
ATOM      4  C   UNL A   1      21.824  -2.545  33.314  1.00  0.00     0.037 A 
ATOM      5  C   UNL A   1      21.852  -3.931  33.461  1.00  0.00     0.010 A 
ATOM      6  C   UNL A   1      21.616  -4.755  32.360  1.00  0.00    -0.058 A 
ATOM      7  C   UNL A   1      21.352  -4.190  31.112  1.00  0.00     0.010 A 
ATOM      8  C   UNL A   1      21.324  -2.804  30.964  1.00  0.00     0.037 A 
BRANCH   6   9
ATOM      9  C   UNL A   1      21.645  -6.237  32.517  1.00  0.00     0.049 C 
BRANCH   9  10
ATOM     10  C   UNL A   1      23.059  -6.819  32.620  1.00  0.00     0.117 C 
BRANCH  10  11
ATOM     11  C   UNL A   1      23.447  -7.565  31.367  1.00  0.00     0.172 C 
ATOM     12  O   UNL A   1      24.514  -8.384  31.549  1.00  0.00    -0.648 OA
ATOM     13  O   UNL A   1      22.851  -7.467  30.303  1.00  0.00    -0.648 OA
ENDBRANCH  10  11
ENDBRANCH   9  10
ENDBRANCH   6   9
ENDBRANCH   1   3
TORSDOF 4
ENDMDL
