MODEL 1
REMARK VINA RESULT:      -6.7      0.000      0.000
REMARK  4 active torsions:
REMARK  status: ('A' for Active; 'I' for Inactive)
REMARK    1  A    between atoms: O_1  and  C_11 
REMARK    2  A    between atoms: C_4  and  C_5 
REMARK    3  A    between atoms: C_4  and  C_6 
REMARK    4  A    between atoms: C_6  and  C_12 
ROOT
ATOM      1  O   UNL A   1      21.583  -0.523  31.985  1.00  0.00    -0.361 OA
ATOM      2  H   UNL A   1      20.844  -0.062  31.641  1.00  0.00     0.217 HD
ENDROOT
BRANCH   1   3
ATOM      3  C   UNL A   1      21.587  -1.884  32.003  1.00  0.00     0.065 A 
ATOM      4  C   UNL A   1      21.785  -2.566  33.203  1.00  0.00     0.037 A 
ATOM      5  C   UNL A   1      21.790  -3.960  33.223  1.00  0.00     0.010 A 
ATOM      6  C   UNL A   1      21.598  -4.674  32.039  1.00  0.00    -0.058 A 
ATOM      7  C   UNL A   1      21.400  -3.993  30.839  1.00  0.00     0.010 A 
ATOM      8  C   UNL A   1      21.394  -2.599  30.820  1.00  0.00     0.037 A 
BRANCH   6   9
ATOM      9  C   UNL A   1      21.603  -6.165  32.060  1.00  0.00     0.049 C 
BRANCH   9  10
ATOM     10  C   UNL A   1      22.902  -6.771  32.602  1.00  0.00     0.117 C 
BRANCH  10  11
ATOM     11  C   UNL A   1      22.683  -7.468  33.924  1.00  0.00     0.172 C 
ATOM     12  O   UNL A   1      21.441  -8.000  34.040  1.00  0.00    -0.648 OA
ATOM     13  O   UNL A   1      23.541  -7.567  34.791  1.00  0.00    -0.648 OA
ENDBRANCH  10  11
ENDBRANCH   9  10
ENDBRANCH   6   9
ENDBRANCH   1   3
TORSDOF 4
ENDMDL
MODEL 2
REMARK VINA RESULT:      -6.7      0.027      1.395
REMARK  4 active torsions:
REMARK  status: ('A' for Active; 'I' for Inactive)
REMARK    1  A    between atoms: O_1  and  C_11 
REMARK    2  A    between atoms: C_4  and  C_5 
REMARK    3  A    between atoms: C_4  and  C_6 
REMARK    4  A    between atoms: C_6  and  C_12 
ROOT
ATOM      1  O   UNL A   1      21.588  -0.520  31.951  1.00  0.00    -0.361 OA
ATOM      2  H   UNL A   1      22.400  -0.053  31.911  1.00  0.00     0.217 HD
ENDROOT
BRANCH   1   3
ATOM      3  C   UNL A   1      21.588  -1.881  31.982  1.00  0.00     0.065 A 
ATOM      4  C   UNL A   1      21.405  -2.606  30.805  1.00  0.00     0.037 A 
ATOM      5  C   UNL A   1      21.404  -4.000  30.836  1.00  0.00     0.010 A 
ATOM      6  C   UNL A   1      21.585  -4.670  32.047  1.00  0.00    -0.058 A 
ATOM      7  C   UNL A   1      21.768  -3.945  33.224  1.00  0.00     0.010 A 
ATOM      8  C   UNL A   1      21.770  -2.551  33.193  1.00  0.00     0.037 A 
BRANCH   6   9
ATOM      9  C   UNL A   1      21.585  -6.161  32.081  1.00  0.00     0.049 C 
BRANCH   9  10
ATOM     10  C   UNL A   1      22.888  -6.767  32.613  1.00  0.00     0.117 C 
BRANCH  10  11
ATOM     11  C   UNL A   1      22.676  -7.480  33.926  1.00  0.00     0.172 C 
ATOM     12  O   UNL A   1      21.451  -8.053  34.023  1.00  0.00    -0.648 OA
ATOM     13  O   UNL A   1      23.526  -7.559  34.804  1.00  0.00    -0.648 OA
ENDBRANCH  10  11
ENDBRANCH   9  10
ENDBRANCH   6   9
ENDBRANCH   1   3
TORSDOF 4
ENDMDL
MODEL 3
REMARK VINA RESULT:      -6.6      2.206      4.588
REMARK  4 active torsions:
REMARK  status: ('A' for Active; 'I' for Inactive)
REMARK    1  A    between atoms: O_1  and  C_11 
REMARK    2  A    between atoms: C_4  and  C_5 
REMARK    3  A    between atoms: C_4  and  C_6 
REMARK    4  A    between atoms: C_6  and  C_12 
ROOT
ATOM      1  O   UNL A   1      21.795  -7.193  31.255  1.00  0.00    -0.361 OA
ATOM      2  H   UNL A   1      21.533  -7.414  30.383  1.00  0.00     0.217 HD
ENDROOT
BRANCH   1   3
ATOM      3  C   UNL A   1      21.753  -5.898  31.670  1.00  0.00     0.065 A 
ATOM      4  C   UNL A   1      22.118  -5.571  32.976  1.00  0.00     0.037 A 
ATOM      5  C   UNL A   1      22.074  -4.244  33.402  1.00  0.00     0.010 A 
ATOM      6  C   UNL A   1      21.664  -3.242  32.522  1.00  0.00    -0.058 A 
ATOM      7  C   UNL A   1      21.299  -3.569  31.216  1.00  0.00     0.010 A 
ATOM      8  C   UNL A   1      21.343  -4.896  30.790  1.00  0.00     0.037 A 
BRANCH   6   9
ATOM      9  C   UNL A   1      21.618  -1.823  32.977  1.00  0.00     0.049 C 
BRANCH   9  10
ATOM     10  C   UNL A   1      21.302  -1.663  34.468  1.00  0.00     0.117 C 
BRANCH  10  11
ATOM     11  C   UNL A   1      22.559  -1.539  35.295  1.00  0.00     0.172 C 
ATOM     12  O   UNL A   1      22.411  -2.017  36.556  1.00  0.00    -0.648 OA
ATOM     13  O   UNL A   1      23.612  -1.082  34.869  1.00  0.00    -0.648 OA
ENDBRANCH  10  11
ENDBRANCH   9  10
ENDBRANCH   6   9
ENDBRANCH   1   3
TORSDOF 4
ENDMDL
MODEL 4
REMARK VINA RESULT:      -6.6      2.228      4.800
REMARK  4 active torsions:
REMARK  status: ('A' for Active; 'I' for Inactive)
REMARK    1  A    between atoms: O_1  and  C_11 
REMARK    2  A    between atoms: C_4  and  C_5 
REMARK    3  A    between atoms: C_4  and  C_6 
REMARK    4  A    between atoms: C_6  and  C_12 
ROOT
ATOM      1  O   UNL A   1      21.796  -7.039  31.177  1.00  0.00    -0.361 OA
ATOM      2  H   UNL A   1      21.329  -7.276  30.400  1.00  0.00     0.217 HD
ENDROOT
BRANCH   1   3
ATOM      3  C   UNL A   1      21.751  -5.757  31.633  1.00  0.00     0.065 A 
ATOM      4  C   UNL A   1      21.345  -4.729  30.784  1.00  0.00     0.037 A 
ATOM      5  C   UNL A   1      21.300  -3.415  31.249  1.00  0.00     0.010 A 
ATOM      6  C   UNL A   1      21.662  -3.129  32.566  1.00  0.00    -0.058 A 
ATOM      7  C   UNL A   1      22.069  -4.157  33.415  1.00  0.00     0.010 A 
ATOM      8  C   UNL A   1      22.114  -5.471  32.950  1.00  0.00     0.037 A 
BRANCH   6   9
ATOM      9  C   UNL A   1      21.613  -1.725  33.064  1.00  0.00     0.049 C 
BRANCH   9  10
ATOM     10  C   UNL A   1      21.227  -1.607  34.543  1.00  0.00     0.117 C 
BRANCH  10  11
ATOM     11  C   UNL A   1      22.443  -1.586  35.437  1.00  0.00     0.172 C 
ATOM     12  O   UNL A   1      23.528  -1.036  34.838  1.00  0.00    -0.648 OA
ATOM     13  O   UNL A   1      22.448  -1.996  36.591  1.00  0.00    -0.648 OA
ENDBRANCH  10  11
ENDBRANCH   9  10
ENDBRANCH   6   9
ENDBRANCH   1   3
TORSDOF 4
ENDMDL
MODEL 5
REMARK VINA RESULT:      -6.4      1.382      2.016
REMARK  4 active torsions:
REMARK  status: ('A' for Active; 'I' for Inactive)
REMARK    1  A    between atoms: O_1  and  C_11 
REMARK    2  A    between atoms: C_4  and  C_5 
REMARK    3  A    between atoms: C_4  and  C_6 
REMARK    4  A    between atoms: C_6  and  C_12 
ROOT
ATOM      1  O   UNL A   1      19.144  -1.884  29.587  1.00  0.00    -0.361 OA
ATOM      2  H   UNL A   1      19.398  -1.016  29.342  1.00  0.00     0.217 HD
ENDROOT
BRANCH   1   3
ATOM      3  C   UNL A   1      19.920  -2.602  30.444  1.00  0.00     0.065 A 
ATOM      4  C   UNL A   1      20.122  -3.965  30.227  1.00  0.00     0.037 A 
ATOM      5  C   UNL A   1      20.915  -4.702  31.105  1.00  0.00     0.010 A 
ATOM      6  C   UNL A   1      21.507  -4.076  32.203  1.00  0.00    -0.058 A 
ATOM      7  C   UNL A   1      21.305  -2.714  32.420  1.00  0.00     0.010 A 
ATOM      8  C   UNL A   1      20.512  -1.976  31.542  1.00  0.00     0.037 A 
BRANCH   6   9
ATOM      9  C   UNL A   1      22.356  -4.864  33.142  1.00  0.00     0.049 C 
BRANCH   9  10
ATOM     10  C   UNL A   1      22.631  -6.297  32.672  1.00  0.00     0.117 C 
BRANCH  10  11
ATOM     11  C   UNL A   1      22.539  -7.284  33.810  1.00  0.00     0.172 C 
ATOM     12  O   UNL A   1      21.356  -7.947  33.838  1.00  0.00    -0.648 OA
ATOM     13  O   UNL A   1      23.443  -7.488  34.610  1.00  0.00    -0.648 OA
ENDBRANCH  10  11
ENDBRANCH   9  10
ENDBRANCH   6   9
ENDBRANCH   1   3
TORSDOF 4
ENDMDL
MODEL 6
REMARK VINA RESULT:      -6.4      3.204      4.518
REMARK  4 active torsions:
REMARK  status: ('A' for Active; 'I' for Inactive)
REMARK    1  A    between atoms: O_1  and  C_11 
REMARK    2  A    between atoms: C_4  and  C_5 
REMARK    3  A    between atoms: C_4  and  C_6 
REMARK    4  A    between atoms: C_6  and  C_12 
ROOT
ATOM      1  O   UNL A   1      19.412  -4.977  29.169  1.00  0.00    -0.361 OA
ATOM      2  H   UNL A   1      19.558  -4.847  28.252  1.00  0.00     0.217 HD
ENDROOT
BRANCH   1   3
ATOM      3  C   UNL A   1      20.009  -4.155  30.075  1.00  0.00     0.065 A 
ATOM      4  C   UNL A   1      21.006  -4.650  30.915  1.00  0.00     0.037 A 
ATOM      5  C   UNL A   1      21.617  -3.810  31.845  1.00  0.00     0.010 A 
ATOM      6  C   UNL A   1      21.230  -2.472  31.935  1.00  0.00    -0.058 A 
ATOM      7  C   UNL A   1      20.233  -1.977  31.095  1.00  0.00     0.010 A 
ATOM      8  C   UNL A   1      19.622  -2.818  30.166  1.00  0.00     0.037 A 
BRANCH   6   9
ATOM      9  C   UNL A   1      21.883  -1.572  32.929  1.00  0.00     0.049 C 
BRANCH   9  10
ATOM     10  C   UNL A   1      21.311  -1.697  34.345  1.00  0.00     0.117 C 
BRANCH  10  11
ATOM     11  C   UNL A   1      22.402  -1.711  35.388  1.00  0.00     0.172 C 
ATOM     12  O   UNL A   1      23.534  -1.089  34.975  1.00  0.00    -0.648 OA
ATOM     13  O   UNL A   1      22.275  -2.207  36.500  1.00  0.00    -0.648 OA
ENDBRANCH  10  11
ENDBRANCH   9  10
ENDBRANCH   6   9
ENDBRANCH   1   3
TORSDOF 4
ENDMDL
MODEL 7
REMARK VINA RESULT:      -6.3      2.841      5.306
REMARK  4 active torsions:
REMARK  status: ('A' for Active; 'I' for Inactive)
REMARK    1  A    between atoms: O_1  and  C_11 
REMARK    2  A    between atoms: C_4  and  C_5 
REMARK    3  A    between atoms: C_4  and  C_6 
REMARK    4  A    between atoms: C_6  and  C_12 
ROOT
ATOM      1  O   UNL A   1      22.575  -2.660  35.222  1.00  0.00    -0.361 OA
ATOM      2  H   UNL A   1      22.416  -3.260  35.924  1.00  0.00     0.217 HD
ENDROOT
BRANCH   1   3
ATOM      3  C   UNL A   1      22.076  -2.917  33.982  1.00  0.00     0.065 A 
ATOM      4  C   UNL A   1      21.490  -1.893  33.239  1.00  0.00     0.037 A 
ATOM      5  C   UNL A   1      20.979  -2.155  31.969  1.00  0.00     0.010 A 
ATOM      6  C   UNL A   1      21.052  -3.445  31.440  1.00  0.00    -0.058 A 
ATOM      7  C   UNL A   1      21.638  -4.469  32.183  1.00  0.00     0.010 A 
ATOM      8  C   UNL A   1      22.150  -4.207  33.453  1.00  0.00     0.037 A 
BRANCH   6   9
ATOM      9  C   UNL A   1      20.506  -3.726  30.082  1.00  0.00     0.049 C 
BRANCH   9  10
ATOM     10  C   UNL A   1      19.443  -2.721  29.624  1.00  0.00     0.117 C 
BRANCH  10  11
ATOM     11  C   UNL A   1      19.631  -2.332  28.178  1.00  0.00     0.172 C 
ATOM     12  O   UNL A   1      20.927  -2.383  27.782  1.00  0.00    -0.648 OA
ATOM     13  O   UNL A   1      18.712  -2.026  27.429  1.00  0.00    -0.648 OA
ENDBRANCH  10  11
ENDBRANCH   9  10
ENDBRANCH   6   9
ENDBRANCH   1   3
TORSDOF 4
ENDMDL
MODEL 8
REMARK VINA RESULT:      -6.3      2.838      5.329
REMARK  4 active torsions:
REMARK  status: ('A' for Active; 'I' for Inactive)
REMARK    1  A    between atoms: O_1  and  C_11 
REMARK    2  A    between atoms: C_4  and  C_5 
REMARK    3  A    between atoms: C_4  and  C_6 
REMARK    4  A    between atoms: C_6  and  C_12 
ROOT
ATOM      1  O   UNL A   1      22.547  -2.678  35.190  1.00  0.00    -0.361 OA
ATOM      2  H   UNL A   1      23.456  -2.824  35.362  1.00  0.00     0.217 HD
ENDROOT
BRANCH   1   3
ATOM      3  C   UNL A   1      22.043  -2.916  33.948  1.00  0.00     0.065 A 
ATOM      4  C   UNL A   1      22.112  -4.197  33.401  1.00  0.00     0.037 A 
ATOM      5  C   UNL A   1      21.597  -4.442  32.129  1.00  0.00     0.010 A 
ATOM      6  C   UNL A   1      21.014  -3.405  31.401  1.00  0.00    -0.058 A 
ATOM      7  C   UNL A   1      20.945  -2.123  31.947  1.00  0.00     0.010 A 
ATOM      8  C   UNL A   1      21.460  -1.879  33.220  1.00  0.00     0.037 A 
BRANCH   6   9
ATOM      9  C   UNL A   1      20.463  -3.666  30.040  1.00  0.00     0.049 C 
BRANCH   9  10
ATOM     10  C   UNL A   1      19.433  -2.627  29.581  1.00  0.00     0.117 C 
BRANCH  10  11
ATOM     11  C   UNL A   1      19.573  -2.316  28.111  1.00  0.00     0.172 C 
ATOM     12  O   UNL A   1      20.865  -2.288  27.698  1.00  0.00    -0.648 OA
ATOM     13  O   UNL A   1      18.624  -2.133  27.359  1.00  0.00    -0.648 OA
ENDBRANCH  10  11
ENDBRANCH   9  10
ENDBRANCH   6   9
ENDBRANCH   1   3
TORSDOF 4
ENDMDL
MODEL 9
REMARK VINA RESULT:      -6.3      3.270      4.534
REMARK  4 active torsions:
REMARK  status: ('A' for Active; 'I' for Inactive)
REMARK    1  A    between atoms: O_1  and  C_11 
REMARK    2  A    between atoms: C_4  and  C_5 
REMARK    3  A    between atoms: C_4  and  C_6 
REMARK    4  A    between atoms: C_6  and  C_12 
ROOT
ATOM      1  O   UNL A   1      19.445  -4.947  28.916  1.00  0.00    -0.361 OA
ATOM      2  H   UNL A   1      19.962  -5.201  28.176  1.00  0.00     0.217 HD
ENDROOT
BRANCH   1   3
ATOM      3  C   UNL A   1      19.992  -4.176  29.895  1.00  0.00     0.065 A 
ATOM      4  C   UNL A   1      19.628  -2.835  30.012  1.00  0.00     0.037 A 
ATOM      5  C   UNL A   1      20.188  -2.044  31.014  1.00  0.00     0.010 A 
ATOM      6  C   UNL A   1      21.115  -2.594  31.901  1.00  0.00    -0.058 A 
ATOM      7  C   UNL A   1      21.479  -3.935  31.783  1.00  0.00     0.010 A 
ATOM      8  C   UNL A   1      20.919  -4.727  30.781  1.00  0.00     0.037 A 
BRANCH   6   9
ATOM      9  C   UNL A   1      21.714  -1.749  32.972  1.00  0.00     0.049 C 
BRANCH   9  10
ATOM     10  C   UNL A   1      21.797  -2.447  34.335  1.00  0.00     0.117 C 
BRANCH  10  11
ATOM     11  C   UNL A   1      22.740  -1.730  35.272  1.00  0.00     0.172 C 
ATOM     12  O   UNL A   1      22.455  -1.953  36.579  1.00  0.00    -0.648 OA
ATOM     13  O   UNL A   1      23.679  -1.041  34.897  1.00  0.00    -0.648 OA
ENDBRANCH  10  11
ENDBRANCH   9  10
ENDBRANCH   6   9
ENDBRANCH   1   3
TORSDOF 4
ENDMDL
