MODEL 1
REMARK VINA RESULT:      -6.4      0.000      0.000
REMARK  6 active torsions:
REMARK  status: ('A' for Active; 'I' for Inactive)
REMARK    1  A    between atoms: O_1  and  C_11 
REMARK    2  A    between atoms: C_4  and  C_5 
REMARK    3  A    between atoms: C_4  and  C_6 
REMARK    4  A    between atoms: C_5  and  C_7 
REMARK    5  A    between atoms: C_6  and  C_8 
REMARK    6  A    between atoms: C_8  and  C_12 
ROOT
HETATM    1  O   UNL     1      31.734  76.207  23.637  1.00  0.00    -0.361 OA
HETATM    2  H   UNL     1      31.207  76.485  24.361  1.00  0.00     0.217 HD
ENDROOT
BRANCH   1   3
HETATM    3  C   UNL     1      31.508  76.716  22.396  1.00  0.00     0.066 A 
HETATM    4  C   UNL     1      31.835  75.968  21.264  1.00  0.00     0.043 A 
HETATM    5  C   UNL     1      31.600  76.501  20.006  1.00  0.00    -0.056 A 
HETATM    6  C   UNL     1      31.045  77.762  19.851  1.00  0.00     0.007 A 
HETATM    7  C   UNL     1      30.718  78.509  20.982  1.00  0.00     0.003 A 
HETATM    8  C   UNL     1      30.949  77.986  22.255  1.00  0.00     0.036 A 
BRANCH   5   9
HETATM    9  C   UNL     1      31.955  75.694  18.783  1.00  0.00     0.038 C 
BRANCH   9  10
HETATM   10  C   UNL     1      31.084  76.003  17.559  1.00  0.00     0.005 C 
BRANCH  10  11
HETATM   11  C   UNL     1      31.874  75.988  16.244  1.00  0.00     0.011 C 
BRANCH  11  12
HETATM   12  C   UNL     1      31.689  77.277  15.439  1.00  0.00     0.113 C 
BRANCH  12  13
HETATM   13  C   UNL     1      31.746  78.527  16.289  1.00  0.00     0.172 C 
HETATM   14  O   UNL     1      30.535  79.138  16.354  1.00  0.00    -0.648 OA
HETATM   15  O   UNL     1      32.736  78.944  16.873  1.00  0.00    -0.648 OA
ENDBRANCH  12  13
ENDBRANCH  11  12
ENDBRANCH  10  11
ENDBRANCH   9  10
ENDBRANCH   5   9
ENDBRANCH   1   3
TORSDOF 6
ENDMDL
MODEL 2
REMARK VINA RESULT:      -6.2      3.704      5.216
REMARK  6 active torsions:
REMARK  status: ('A' for Active; 'I' for Inactive)
REMARK    1  A    between atoms: O_1  and  C_11 
REMARK    2  A    between atoms: C_4  and  C_5 
REMARK    3  A    between atoms: C_4  and  C_6 
REMARK    4  A    between atoms: C_5  and  C_7 
REMARK    5  A    between atoms: C_6  and  C_8 
REMARK    6  A    between atoms: C_8  and  C_12 
ROOT
HETATM    1  O   UNL     1      34.452  72.195  22.007  1.00  0.00    -0.361 OA
HETATM    2  H   UNL     1      34.527  71.596  21.290  1.00  0.00     0.217 HD
ENDROOT
BRANCH   1   3
HETATM    3  C   UNL     1      33.292  72.877  22.205  1.00  0.00     0.066 A 
HETATM    4  C   UNL     1      33.272  74.268  22.093  1.00  0.00     0.043 A 
HETATM    5  C   UNL     1      32.081  74.949  22.299  1.00  0.00    -0.056 A 
HETATM    6  C   UNL     1      30.911  74.273  22.612  1.00  0.00     0.007 A 
HETATM    7  C   UNL     1      30.931  72.884  22.723  1.00  0.00     0.003 A 
HETATM    8  C   UNL     1      32.122  72.185  22.519  1.00  0.00     0.036 A 
BRANCH   5   9
HETATM    9  C   UNL     1      32.059  76.452  22.180  1.00  0.00     0.038 C 
BRANCH   9  10
HETATM   10  C   UNL     1      31.499  76.962  20.847  1.00  0.00     0.005 C 
BRANCH  10  11
HETATM   11  C   UNL     1      31.475  78.494  20.756  1.00  0.00     0.011 C 
BRANCH  11  12
HETATM   12  C   UNL     1      30.971  79.146  22.046  1.00  0.00     0.113 C 
BRANCH  12  13
HETATM   13  C   UNL     1      31.934  80.162  22.619  1.00  0.00     0.172 C 
HETATM   14  O   UNL     1      32.976  79.557  23.247  1.00  0.00    -0.648 OA
HETATM   15  O   UNL     1      31.824  81.376  22.526  1.00  0.00    -0.648 OA
ENDBRANCH  12  13
ENDBRANCH  11  12
ENDBRANCH  10  11
ENDBRANCH   9  10
ENDBRANCH   5   9
ENDBRANCH   1   3
TORSDOF 6
ENDMDL
MODEL 3
REMARK VINA RESULT:      -6.1      2.161      3.106
REMARK  6 active torsions:
REMARK  status: ('A' for Active; 'I' for Inactive)
REMARK    1  A    between atoms: O_1  and  C_11 
REMARK    2  A    between atoms: C_4  and  C_5 
REMARK    3  A    between atoms: C_4  and  C_6 
REMARK    4  A    between atoms: C_5  and  C_7 
REMARK    5  A    between atoms: C_6  and  C_8 
REMARK    6  A    between atoms: C_8  and  C_12 
ROOT
HETATM    1  O   UNL     1      28.900  79.603  22.307  1.00  0.00    -0.361 OA
HETATM    2  H   UNL     1      28.488  79.695  21.471  1.00  0.00     0.217 HD
ENDROOT
BRANCH   1   3
HETATM    3  C   UNL     1      30.189  79.174  22.387  1.00  0.00     0.066 A 
HETATM    4  C   UNL     1      30.473  77.808  22.359  1.00  0.00     0.043 A 
HETATM    5  C   UNL     1      31.791  77.387  22.441  1.00  0.00    -0.056 A 
HETATM    6  C   UNL     1      32.832  78.297  22.550  1.00  0.00     0.007 A 
HETATM    7  C   UNL     1      32.548  79.661  22.577  1.00  0.00     0.003 A 
HETATM    8  C   UNL     1      31.226  80.101  22.495  1.00  0.00     0.036 A 
BRANCH   5   9
HETATM    9  C   UNL     1      32.099  75.911  22.413  1.00  0.00     0.038 C 
BRANCH   9  10
HETATM   10  C   UNL     1      31.650  75.206  21.127  1.00  0.00     0.005 C 
BRANCH  10  11
HETATM   11  C   UNL     1      32.453  75.644  19.895  1.00  0.00     0.011 C 
BRANCH  11  12
HETATM   12  C   UNL     1      31.562  76.244  18.804  1.00  0.00     0.113 C 
BRANCH  12  13
HETATM   13  C   UNL     1      31.640  77.753  18.731  1.00  0.00     0.172 C 
HETATM   14  O   UNL     1      30.425  78.323  18.942  1.00  0.00    -0.648 OA
HETATM   15  O   UNL     1      32.656  78.403  18.531  1.00  0.00    -0.648 OA
ENDBRANCH  12  13
ENDBRANCH  11  12
ENDBRANCH  10  11
ENDBRANCH   9  10
ENDBRANCH   5   9
ENDBRANCH   1   3
TORSDOF 6
ENDMDL
MODEL 4
REMARK VINA RESULT:      -6.1      2.027      5.166
REMARK  6 active torsions:
REMARK  status: ('A' for Active; 'I' for Inactive)
REMARK    1  A    between atoms: O_1  and  C_11 
REMARK    2  A    between atoms: C_4  and  C_5 
REMARK    3  A    between atoms: C_4  and  C_6 
REMARK    4  A    between atoms: C_5  and  C_7 
REMARK    5  A    between atoms: C_6  and  C_8 
REMARK    6  A    between atoms: C_8  and  C_12 
ROOT
HETATM    1  O   UNL     1      32.916  79.285  17.256  1.00  0.00    -0.361 OA
HETATM    2  H   UNL     1      33.740  79.557  17.609  1.00  0.00     0.217 HD
ENDROOT
BRANCH   1   3
HETATM    3  C   UNL     1      32.356  78.113  17.659  1.00  0.00     0.066 A 
HETATM    4  C   UNL     1      32.495  77.692  18.982  1.00  0.00     0.043 A 
HETATM    5  C   UNL     1      31.919  76.494  19.378  1.00  0.00    -0.056 A 
HETATM    6  C   UNL     1      31.209  75.707  18.484  1.00  0.00     0.007 A 
HETATM    7  C   UNL     1      31.070  76.128  17.162  1.00  0.00     0.003 A 
HETATM    8  C   UNL     1      31.644  77.332  16.749  1.00  0.00     0.036 A 
BRANCH   5   9
HETATM    9  C   UNL     1      32.069  76.037  20.807  1.00  0.00     0.038 C 
BRANCH   9  10
HETATM   10  C   UNL     1      32.237  77.184  21.812  1.00  0.00     0.005 C 
BRANCH  10  11
HETATM   11  C   UNL     1      30.902  77.678  22.383  1.00  0.00     0.011 C 
BRANCH  11  12
HETATM   12  C   UNL     1      30.560  79.096  21.920  1.00  0.00     0.113 C 
BRANCH  12  13
HETATM   13  C   UNL     1      31.570  80.131  22.366  1.00  0.00     0.172 C 
HETATM   14  O   UNL     1      32.267  80.629  21.312  1.00  0.00    -0.648 OA
HETATM   15  O   UNL     1      31.742  80.505  23.517  1.00  0.00    -0.648 OA
ENDBRANCH  12  13
ENDBRANCH  11  12
ENDBRANCH  10  11
ENDBRANCH   9  10
ENDBRANCH   5   9
ENDBRANCH   1   3
TORSDOF 6
ENDMDL
MODEL 5
REMARK VINA RESULT:      -6.0      3.046      4.738
REMARK  6 active torsions:
REMARK  status: ('A' for Active; 'I' for Inactive)
REMARK    1  A    between atoms: O_1  and  C_11 
REMARK    2  A    between atoms: C_4  and  C_5 
REMARK    3  A    between atoms: C_4  and  C_6 
REMARK    4  A    between atoms: C_5  and  C_7 
REMARK    5  A    between atoms: C_6  and  C_8 
REMARK    6  A    between atoms: C_8  and  C_12 
ROOT
HETATM    1  O   UNL     1      31.411  72.495  23.359  1.00  0.00    -0.361 OA
HETATM    2  H   UNL     1      31.286  71.567  23.391  1.00  0.00     0.217 HD
ENDROOT
BRANCH   1   3
HETATM    3  C   UNL     1      32.118  73.053  22.339  1.00  0.00     0.066 A 
HETATM    4  C   UNL     1      31.449  73.664  21.278  1.00  0.00     0.043 A 
HETATM    5  C   UNL     1      32.184  74.227  20.246  1.00  0.00    -0.056 A 
HETATM    6  C   UNL     1      33.570  74.195  20.249  1.00  0.00     0.007 A 
HETATM    7  C   UNL     1      34.238  73.585  21.310  1.00  0.00     0.003 A 
HETATM    8  C   UNL     1      33.512  73.014  22.356  1.00  0.00     0.036 A 
BRANCH   5   9
HETATM    9  C   UNL     1      31.462  74.886  19.098  1.00  0.00     0.038 C 
BRANCH   9  10
HETATM   10  C   UNL     1      31.828  76.361  18.897  1.00  0.00     0.005 C 
BRANCH  10  11
HETATM   11  C   UNL     1      31.144  77.290  19.908  1.00  0.00     0.011 C 
BRANCH  11  12
HETATM   12  C   UNL     1      32.076  77.691  21.054  1.00  0.00     0.113 C 
BRANCH  12  13
HETATM   13  C   UNL     1      31.516  77.370  22.422  1.00  0.00     0.172 C 
HETATM   14  O   UNL     1      32.343  76.547  23.116  1.00  0.00    -0.648 OA
HETATM   15  O   UNL     1      30.466  77.801  22.878  1.00  0.00    -0.648 OA
ENDBRANCH  12  13
ENDBRANCH  11  12
ENDBRANCH  10  11
ENDBRANCH   9  10
ENDBRANCH   5   9
ENDBRANCH   1   3
TORSDOF 6
ENDMDL
MODEL 6
REMARK VINA RESULT:      -6.0      1.259      1.786
REMARK  6 active torsions:
REMARK  status: ('A' for Active; 'I' for Inactive)
REMARK    1  A    between atoms: O_1  and  C_11 
REMARK    2  A    between atoms: C_4  and  C_5 
REMARK    3  A    between atoms: C_4  and  C_6 
REMARK    4  A    between atoms: C_5  and  C_7 
REMARK    5  A    between atoms: C_6  and  C_8 
REMARK    6  A    between atoms: C_8  and  C_12 
ROOT
HETATM    1  O   UNL     1      30.587  79.326  21.050  1.00  0.00    -0.361 OA
HETATM    2  H   UNL     1      31.000  80.074  20.664  1.00  0.00     0.217 HD
ENDROOT
BRANCH   1   3
HETATM    3  C   UNL     1      31.194  78.110  20.996  1.00  0.00     0.066 A 
HETATM    4  C   UNL     1      31.082  77.324  19.849  1.00  0.00     0.043 A 
HETATM    5  C   UNL     1      31.706  76.086  19.809  1.00  0.00    -0.056 A 
HETATM    6  C   UNL     1      32.438  75.615  20.889  1.00  0.00     0.007 A 
HETATM    7  C   UNL     1      32.550  76.400  22.035  1.00  0.00     0.003 A 
HETATM    8  C   UNL     1      31.928  77.649  22.089  1.00  0.00     0.036 A 
BRANCH   5   9
HETATM    9  C   UNL     1      31.584  75.236  18.570  1.00  0.00     0.038 C 
BRANCH   9  10
HETATM   10  C   UNL     1      30.987  75.973  17.366  1.00  0.00     0.005 C 
BRANCH  10  11
HETATM   11  C   UNL     1      31.924  75.992  16.151  1.00  0.00     0.011 C 
BRANCH  11  12
HETATM   12  C   UNL     1      31.948  77.355  15.455  1.00  0.00     0.113 C 
BRANCH  12  13
HETATM   13  C   UNL     1      31.845  78.519  16.415  1.00  0.00     0.172 C 
HETATM   14  O   UNL     1      30.610  79.083  16.380  1.00  0.00    -0.648 OA
HETATM   15  O   UNL     1      32.736  78.909  17.156  1.00  0.00    -0.648 OA
ENDBRANCH  12  13
ENDBRANCH  11  12
ENDBRANCH  10  11
ENDBRANCH   9  10
ENDBRANCH   5   9
ENDBRANCH   1   3
TORSDOF 6
ENDMDL
MODEL 7
REMARK VINA RESULT:      -5.9      2.447      5.399
REMARK  6 active torsions:
REMARK  status: ('A' for Active; 'I' for Inactive)
REMARK    1  A    between atoms: O_1  and  C_11 
REMARK    2  A    between atoms: C_4  and  C_5 
REMARK    3  A    between atoms: C_4  and  C_6 
REMARK    4  A    between atoms: C_5  and  C_7 
REMARK    5  A    between atoms: C_6  and  C_8 
REMARK    6  A    between atoms: C_8  and  C_12 
ROOT
HETATM    1  O   UNL     1      30.323  74.650  15.441  1.00  0.00    -0.361 OA
HETATM    2  H   UNL     1      29.574  74.675  14.879  1.00  0.00     0.217 HD
ENDROOT
BRANCH   1   3
HETATM    3  C   UNL     1      30.536  75.654  16.335  1.00  0.00     0.066 A 
HETATM    4  C   UNL     1      31.227  75.398  17.520  1.00  0.00     0.043 A 
HETATM    5  C   UNL     1      31.435  76.431  18.422  1.00  0.00    -0.056 A 
HETATM    6  C   UNL     1      30.969  77.712  18.168  1.00  0.00     0.007 A 
HETATM    7  C   UNL     1      30.278  77.967  16.984  1.00  0.00     0.003 A 
HETATM    8  C   UNL     1      30.062  76.938  16.067  1.00  0.00     0.036 A 
BRANCH   5   9
HETATM    9  C   UNL     1      32.181  76.156  19.703  1.00  0.00     0.038 C 
BRANCH   9  10
HETATM   10  C   UNL     1      31.404  76.537  20.969  1.00  0.00     0.005 C 
BRANCH  10  11
HETATM   11  C   UNL     1      32.118  77.603  21.811  1.00  0.00     0.011 C 
BRANCH  11  12
HETATM   12  C   UNL     1      31.312  78.900  21.913  1.00  0.00     0.113 C 
BRANCH  12  13
HETATM   13  C   UNL     1      32.114  80.061  22.456  1.00  0.00     0.172 C 
HETATM   14  O   UNL     1      33.009  79.651  23.392  1.00  0.00    -0.648 OA
HETATM   15  O   UNL     1      32.007  81.226  22.101  1.00  0.00    -0.648 OA
ENDBRANCH  12  13
ENDBRANCH  11  12
ENDBRANCH  10  11
ENDBRANCH   9  10
ENDBRANCH   5   9
ENDBRANCH   1   3
TORSDOF 6
ENDMDL
MODEL 8
REMARK VINA RESULT:      -5.8      1.360      2.202
REMARK  6 active torsions:
REMARK  status: ('A' for Active; 'I' for Inactive)
REMARK    1  A    between atoms: O_1  and  C_11 
REMARK    2  A    between atoms: C_4  and  C_5 
REMARK    3  A    between atoms: C_4  and  C_6 
REMARK    4  A    between atoms: C_5  and  C_7 
REMARK    5  A    between atoms: C_6  and  C_8 
REMARK    6  A    between atoms: C_8  and  C_12 
ROOT
HETATM    1  O   UNL     1      31.803  76.311  23.674  1.00  0.00    -0.361 OA
HETATM    2  H   UNL     1      32.433  76.246  24.364  1.00  0.00     0.217 HD
ENDROOT
BRANCH   1   3
HETATM    3  C   UNL     1      32.154  75.992  22.399  1.00  0.00     0.066 A 
HETATM    4  C   UNL     1      31.989  76.925  21.375  1.00  0.00     0.043 A 
HETATM    5  C   UNL     1      32.352  76.585  20.080  1.00  0.00    -0.056 A 
HETATM    6  C   UNL     1      32.875  75.334  19.785  1.00  0.00     0.007 A 
HETATM    7  C   UNL     1      33.040  74.402  20.808  1.00  0.00     0.003 A 
HETATM    8  C   UNL     1      32.680  74.731  22.116  1.00  0.00     0.036 A 
BRANCH   5   9
HETATM    9  C   UNL     1      32.172  77.592  18.973  1.00  0.00     0.038 C 
BRANCH   9  10
HETATM   10  C   UNL     1      30.761  77.613  18.374  1.00  0.00     0.005 C 
BRANCH  10  11
HETATM   11  C   UNL     1      30.616  76.698  17.150  1.00  0.00     0.011 C 
BRANCH  11  12
HETATM   12  C   UNL     1      31.851  76.735  16.248  1.00  0.00     0.113 C 
BRANCH  12  13
HETATM   13  C   UNL     1      31.896  77.946  15.343  1.00  0.00     0.172 C 
HETATM   14  O   UNL     1      31.030  77.821  14.304  1.00  0.00    -0.648 OA
HETATM   15  O   UNL     1      32.595  78.935  15.513  1.00  0.00    -0.648 OA
ENDBRANCH  12  13
ENDBRANCH  11  12
ENDBRANCH  10  11
ENDBRANCH   9  10
ENDBRANCH   5   9
ENDBRANCH   1   3
TORSDOF 6
ENDMDL
MODEL 9
REMARK VINA RESULT:      -5.8      1.167      5.589
REMARK  6 active torsions:
REMARK  status: ('A' for Active; 'I' for Inactive)
REMARK    1  A    between atoms: O_1  and  C_11 
REMARK    2  A    between atoms: C_4  and  C_5 
REMARK    3  A    between atoms: C_4  and  C_6 
REMARK    4  A    between atoms: C_5  and  C_7 
REMARK    5  A    between atoms: C_6  and  C_8 
REMARK    6  A    between atoms: C_8  and  C_12 
ROOT
HETATM    1  O   UNL     1      30.086  79.592  16.456  1.00  0.00    -0.361 OA
HETATM    2  H   UNL     1      29.907  79.924  17.314  1.00  0.00     0.217 HD
ENDROOT
BRANCH   1   3
HETATM    3  C   UNL     1      30.729  78.402  16.309  1.00  0.00     0.066 A 
HETATM    4  C   UNL     1      30.671  77.446  17.323  1.00  0.00     0.043 A 
HETATM    5  C   UNL     1      31.333  76.238  17.158  1.00  0.00    -0.056 A 
HETATM    6  C   UNL     1      32.051  75.964  16.003  1.00  0.00     0.007 A 
HETATM    7  C   UNL     1      32.108  76.919  14.989  1.00  0.00     0.003 A 
HETATM    8  C   UNL     1      31.447  78.139  15.141  1.00  0.00     0.036 A 
BRANCH   5   9
HETATM    9  C   UNL     1      31.272  75.205  18.254  1.00  0.00     0.038 C 
BRANCH   9  10
HETATM   10  C   UNL     1      32.420  75.304  19.266  1.00  0.00     0.005 C 
BRANCH  10  11
HETATM   11  C   UNL     1      31.933  75.521  20.704  1.00  0.00     0.011 C 
BRANCH  11  12
HETATM   12  C   UNL     1      31.437  76.949  20.941  1.00  0.00     0.113 C 
BRANCH  12  13
HETATM   13  C   UNL     1      31.274  77.291  22.406  1.00  0.00     0.172 C 
HETATM   14  O   UNL     1      32.304  76.804  23.146  1.00  0.00    -0.648 OA
HETATM   15  O   UNL     1      30.356  77.940  22.886  1.00  0.00    -0.648 OA
ENDBRANCH  12  13
ENDBRANCH  11  12
ENDBRANCH  10  11
ENDBRANCH   9  10
ENDBRANCH   5   9
ENDBRANCH   1   3
TORSDOF 6
ENDMDL
