MODEL 1
REMARK VINA RESULT:      -6.6      0.000      0.000
REMARK  6 active torsions:
REMARK  status: ('A' for Active; 'I' for Inactive)
REMARK    1  A    between atoms: O_1  and  C_11 
REMARK    2  A    between atoms: C_4  and  C_5 
REMARK    3  A    between atoms: C_4  and  C_6 
REMARK    4  A    between atoms: C_5  and  C_7 
REMARK    5  A    between atoms: C_6  and  C_8 
REMARK    6  A    between atoms: C_8  and  C_12 
ROOT
HETATM    1  O   UNL     1      29.802  79.262  16.649  1.00  0.00    -0.361 OA
HETATM    2  H   UNL     1      28.926  79.497  16.885  1.00  0.00     0.217 HD
ENDROOT
BRANCH   1   3
HETATM    3  C   UNL     1      30.270  78.016  16.931  1.00  0.00     0.066 A 
HETATM    4  C   UNL     1      30.940  77.777  18.131  1.00  0.00     0.043 A 
HETATM    5  C   UNL     1      31.412  76.502  18.404  1.00  0.00    -0.056 A 
HETATM    6  C   UNL     1      31.232  75.461  17.506  1.00  0.00     0.007 A 
HETATM    7  C   UNL     1      30.562  75.700  16.307  1.00  0.00     0.003 A 
HETATM    8  C   UNL     1      30.081  76.977  16.019  1.00  0.00     0.036 A 
BRANCH   5   9
HETATM    9  C   UNL     1      32.137  76.244  19.701  1.00  0.00     0.038 C 
BRANCH   9  10
HETATM   10  C   UNL     1      31.324  76.602  20.950  1.00  0.00     0.005 C 
BRANCH  10  11
HETATM   11  C   UNL     1      32.013  77.653  21.831  1.00  0.00     0.011 C 
BRANCH  11  12
HETATM   12  C   UNL     1      31.304  79.008  21.783  1.00  0.00     0.113 C 
BRANCH  12  13
HETATM   13  C   UNL     1      32.060  80.105  22.499  1.00  0.00     0.172 C 
HETATM   14  O   UNL     1      32.996  79.595  23.340  1.00  0.00    -0.648 OA
HETATM   15  O   UNL     1      31.886  81.306  22.344  1.00  0.00    -0.648 OA
ENDBRANCH  12  13
ENDBRANCH  11  12
ENDBRANCH  10  11
ENDBRANCH   9  10
ENDBRANCH   5   9
ENDBRANCH   1   3
TORSDOF 6
ENDMDL
MODEL 2
REMARK VINA RESULT:      -6.5      2.705      4.529
REMARK  6 active torsions:
REMARK  status: ('A' for Active; 'I' for Inactive)
REMARK    1  A    between atoms: O_1  and  C_11 
REMARK    2  A    between atoms: C_4  and  C_5 
REMARK    3  A    between atoms: C_4  and  C_6 
REMARK    4  A    between atoms: C_5  and  C_7 
REMARK    5  A    between atoms: C_6  and  C_8 
REMARK    6  A    between atoms: C_8  and  C_12 
ROOT
HETATM    1  O   UNL     1      29.996  74.676  24.366  1.00  0.00    -0.361 OA
HETATM    2  H   UNL     1      30.446  74.335  25.114  1.00  0.00     0.217 HD
ENDROOT
BRANCH   1   3
HETATM    3  C   UNL     1      30.490  74.456  23.117  1.00  0.00     0.066 A 
HETATM    4  C   UNL     1      31.112  75.493  22.420  1.00  0.00     0.043 A 
HETATM    5  C   UNL     1      31.609  75.254  21.148  1.00  0.00    -0.056 A 
HETATM    6  C   UNL     1      31.500  74.004  20.556  1.00  0.00     0.007 A 
HETATM    7  C   UNL     1      30.879  72.969  21.253  1.00  0.00     0.003 A 
HETATM    8  C   UNL     1      30.374  73.194  22.534  1.00  0.00     0.036 A 
BRANCH   5   9
HETATM    9  C   UNL     1      32.279  76.374  20.393  1.00  0.00     0.038 C 
BRANCH   9  10
HETATM   10  C   UNL     1      31.338  77.147  19.461  1.00  0.00     0.005 C 
BRANCH  10  11
HETATM   11  C   UNL     1      30.732  78.391  20.123  1.00  0.00     0.011 C 
BRANCH  11  12
HETATM   12  C   UNL     1      31.675  79.023  21.149  1.00  0.00     0.113 C 
BRANCH  12  13
HETATM   13  C   UNL     1      30.992  79.377  22.451  1.00  0.00     0.172 C 
HETATM   14  O   UNL     1      31.684  80.327  23.132  1.00  0.00    -0.648 OA
HETATM   15  O   UNL     1      29.940  78.901  22.854  1.00  0.00    -0.648 OA
ENDBRANCH  12  13
ENDBRANCH  11  12
ENDBRANCH  10  11
ENDBRANCH   9  10
ENDBRANCH   5   9
ENDBRANCH   1   3
TORSDOF 6
ENDMDL
MODEL 3
REMARK VINA RESULT:      -6.4      2.053      5.481
REMARK  6 active torsions:
REMARK  status: ('A' for Active; 'I' for Inactive)
REMARK    1  A    between atoms: O_1  and  C_11 
REMARK    2  A    between atoms: C_4  and  C_5 
REMARK    3  A    between atoms: C_4  and  C_6 
REMARK    4  A    between atoms: C_5  and  C_7 
REMARK    5  A    between atoms: C_6  and  C_8 
REMARK    6  A    between atoms: C_8  and  C_12 
ROOT
HETATM    1  O   UNL     1      31.532  76.239  23.689  1.00  0.00    -0.361 OA
HETATM    2  H   UNL     1      30.828  76.363  24.295  1.00  0.00     0.217 HD
ENDROOT
BRANCH   1   3
HETATM    3  C   UNL     1      31.431  76.723  22.422  1.00  0.00     0.066 A 
HETATM    4  C   UNL     1      31.852  75.947  21.342  1.00  0.00     0.043 A 
HETATM    5  C   UNL     1      31.744  76.455  20.056  1.00  0.00    -0.056 A 
HETATM    6  C   UNL     1      31.224  77.719  19.824  1.00  0.00     0.007 A 
HETATM    7  C   UNL     1      30.803  78.495  20.903  1.00  0.00     0.003 A 
HETATM    8  C   UNL     1      30.906  77.997  22.202  1.00  0.00     0.036 A 
BRANCH   5   9
HETATM    9  C   UNL     1      32.201  75.617  18.889  1.00  0.00     0.038 C 
BRANCH   9  10
HETATM   10  C   UNL     1      31.160  75.490  17.769  1.00  0.00     0.005 C 
BRANCH  10  11
HETATM   11  C   UNL     1      31.686  75.964  16.408  1.00  0.00     0.011 C 
BRANCH  11  12
HETATM   12  C   UNL     1      30.773  77.010  15.764  1.00  0.00     0.113 C 
BRANCH  12  13
HETATM   13  C   UNL     1      31.137  78.431  16.135  1.00  0.00     0.172 C 
HETATM   14  O   UNL     1      30.067  79.102  16.636  1.00  0.00    -0.648 OA
HETATM   15  O   UNL     1      32.248  78.931  16.029  1.00  0.00    -0.648 OA
ENDBRANCH  12  13
ENDBRANCH  11  12
ENDBRANCH  10  11
ENDBRANCH   9  10
ENDBRANCH   5   9
ENDBRANCH   1   3
TORSDOF 6
ENDMDL
MODEL 4
REMARK VINA RESULT:      -6.3      2.037      5.621
REMARK  6 active torsions:
REMARK  status: ('A' for Active; 'I' for Inactive)
REMARK    1  A    between atoms: O_1  and  C_11 
REMARK    2  A    between atoms: C_4  and  C_5 
REMARK    3  A    between atoms: C_4  and  C_6 
REMARK    4  A    between atoms: C_5  and  C_7 
REMARK    5  A    between atoms: C_6  and  C_8 
REMARK    6  A    between atoms: C_8  and  C_12 
ROOT
HETATM    1  O   UNL     1      32.145  76.144  23.472  1.00  0.00    -0.361 OA
HETATM    2  H   UNL     1      31.882  75.283  23.733  1.00  0.00     0.217 HD
ENDROOT
BRANCH   1   3
HETATM    3  C   UNL     1      31.821  76.609  22.236  1.00  0.00     0.066 A 
HETATM    4  C   UNL     1      32.047  75.818  21.109  1.00  0.00     0.043 A 
HETATM    5  C   UNL     1      31.711  76.307  19.856  1.00  0.00    -0.056 A 
HETATM    6  C   UNL     1      31.155  77.568  19.702  1.00  0.00     0.007 A 
HETATM    7  C   UNL     1      30.928  78.359  20.827  1.00  0.00     0.003 A 
HETATM    8  C   UNL     1      31.261  77.880  22.095  1.00  0.00     0.036 A 
BRANCH   5   9
HETATM    9  C   UNL     1      31.957  75.453  18.638  1.00  0.00     0.038 C 
BRANCH   9  10
HETATM   10  C   UNL     1      31.051  75.790  17.448  1.00  0.00     0.005 C 
BRANCH  10  11
HETATM   11  C   UNL     1      31.831  76.286  16.224  1.00  0.00     0.011 C 
BRANCH  11  12
HETATM   12  C   UNL     1      31.630  77.783  15.974  1.00  0.00     0.113 C 
BRANCH  12  13
HETATM   13  C   UNL     1      30.175  78.195  15.944  1.00  0.00     0.172 C 
HETATM   14  O   UNL     1      29.918  79.173  16.851  1.00  0.00    -0.648 OA
HETATM   15  O   UNL     1      29.323  77.738  15.195  1.00  0.00    -0.648 OA
ENDBRANCH  12  13
ENDBRANCH  11  12
ENDBRANCH  10  11
ENDBRANCH   9  10
ENDBRANCH   5   9
ENDBRANCH   1   3
TORSDOF 6
ENDMDL
MODEL 5
REMARK VINA RESULT:      -6.2      1.557      5.004
REMARK  6 active torsions:
REMARK  status: ('A' for Active; 'I' for Inactive)
REMARK    1  A    between atoms: O_1  and  C_11 
REMARK    2  A    between atoms: C_4  and  C_5 
REMARK    3  A    between atoms: C_4  and  C_6 
REMARK    4  A    between atoms: C_5  and  C_7 
REMARK    5  A    between atoms: C_6  and  C_8 
REMARK    6  A    between atoms: C_8  and  C_12 
ROOT
HETATM    1  O   UNL     1      31.891  81.115  22.139  1.00  0.00    -0.361 OA
HETATM    2  H   UNL     1      31.795  81.554  21.317  1.00  0.00     0.217 HD
ENDROOT
BRANCH   1   3
HETATM    3  C   UNL     1      31.445  79.838  22.285  1.00  0.00     0.066 A 
HETATM    4  C   UNL     1      32.317  78.767  22.085  1.00  0.00     0.043 A 
HETATM    5  C   UNL     1      31.847  77.471  22.236  1.00  0.00    -0.056 A 
HETATM    6  C   UNL     1      30.528  77.221  22.583  1.00  0.00     0.007 A 
HETATM    7  C   UNL     1      29.657  78.291  22.783  1.00  0.00     0.003 A 
HETATM    8  C   UNL     1      30.116  79.600  22.635  1.00  0.00     0.036 A 
BRANCH   5   9
HETATM    9  C   UNL     1      32.788  76.313  22.018  1.00  0.00     0.038 C 
BRANCH   9  10
HETATM   10  C   UNL     1      32.308  75.312  20.961  1.00  0.00     0.005 C 
BRANCH  10  11
HETATM   11  C   UNL     1      32.412  75.858  19.530  1.00  0.00     0.011 C 
BRANCH  11  12
HETATM   12  C   UNL     1      31.088  76.445  19.033  1.00  0.00     0.113 C 
BRANCH  12  13
HETATM   13  C   UNL     1      31.256  77.743  18.275  1.00  0.00     0.172 C 
HETATM   14  O   UNL     1      32.446  78.333  18.560  1.00  0.00    -0.648 OA
HETATM   15  O   UNL     1      30.451  78.212  17.483  1.00  0.00    -0.648 OA
ENDBRANCH  12  13
ENDBRANCH  11  12
ENDBRANCH  10  11
ENDBRANCH   9  10
ENDBRANCH   5   9
ENDBRANCH   1   3
TORSDOF 6
ENDMDL
MODEL 6
REMARK VINA RESULT:      -6.0      3.280      5.094
REMARK  6 active torsions:
REMARK  status: ('A' for Active; 'I' for Inactive)
REMARK    1  A    between atoms: O_1  and  C_11 
REMARK    2  A    between atoms: C_4  and  C_5 
REMARK    3  A    between atoms: C_4  and  C_6 
REMARK    4  A    between atoms: C_5  and  C_7 
REMARK    5  A    between atoms: C_6  and  C_8 
REMARK    6  A    between atoms: C_8  and  C_12 
ROOT
HETATM    1  O   UNL     1      31.347  72.287  23.352  1.00  0.00    -0.361 OA
HETATM    2  H   UNL     1      30.686  72.761  23.817  1.00  0.00     0.217 HD
ENDROOT
BRANCH   1   3
HETATM    3  C   UNL     1      32.074  72.907  22.384  1.00  0.00     0.066 A 
HETATM    4  C   UNL     1      31.440  73.726  21.450  1.00  0.00     0.043 A 
HETATM    5  C   UNL     1      32.195  74.350  20.468  1.00  0.00    -0.056 A 
HETATM    6  C   UNL     1      33.569  74.175  20.399  1.00  0.00     0.007 A 
HETATM    7  C   UNL     1      34.203  73.357  21.333  1.00  0.00     0.003 A 
HETATM    8  C   UNL     1      33.456  72.723  22.326  1.00  0.00     0.036 A 
BRANCH   5   9
HETATM    9  C   UNL     1      31.510  75.233  19.457  1.00  0.00     0.038 C 
BRANCH   9  10
HETATM   10  C   UNL     1      32.077  76.656  19.389  1.00  0.00     0.005 C 
BRANCH  10  11
HETATM   11  C   UNL     1      31.095  77.717  19.902  1.00  0.00     0.011 C 
BRANCH  11  12
HETATM   12  C   UNL     1      31.610  78.430  21.154  1.00  0.00     0.113 C 
BRANCH  12  13
HETATM   13  C   UNL     1      31.716  77.521  22.359  1.00  0.00     0.172 C 
HETATM   14  O   UNL     1      32.995  77.444  22.811  1.00  0.00    -0.648 OA
HETATM   15  O   UNL     1      30.784  76.937  22.892  1.00  0.00    -0.648 OA
ENDBRANCH  12  13
ENDBRANCH  11  12
ENDBRANCH  10  11
ENDBRANCH   9  10
ENDBRANCH   5   9
ENDBRANCH   1   3
TORSDOF 6
ENDMDL
MODEL 7
REMARK VINA RESULT:      -6.0      3.610      5.837
REMARK  6 active torsions:
REMARK  status: ('A' for Active; 'I' for Inactive)
REMARK    1  A    between atoms: O_1  and  C_11 
REMARK    2  A    between atoms: C_4  and  C_5 
REMARK    3  A    between atoms: C_4  and  C_6 
REMARK    4  A    between atoms: C_5  and  C_7 
REMARK    5  A    between atoms: C_6  and  C_8 
REMARK    6  A    between atoms: C_8  and  C_12 
ROOT
HETATM    1  O   UNL     1      31.798  76.271  23.672  1.00  0.00    -0.361 OA
HETATM    2  H   UNL     1      31.639  75.380  23.916  1.00  0.00     0.217 HD
ENDROOT
BRANCH   1   3
HETATM    3  C   UNL     1      31.587  76.672  22.389  1.00  0.00     0.066 A 
HETATM    4  C   UNL     1      31.884  75.813  21.331  1.00  0.00     0.043 A 
HETATM    5  C   UNL     1      31.664  76.237  20.029  1.00  0.00    -0.056 A 
HETATM    6  C   UNL     1      31.154  77.499  19.760  1.00  0.00     0.007 A 
HETATM    7  C   UNL     1      30.857  78.357  20.818  1.00  0.00     0.003 A 
HETATM    8  C   UNL     1      31.073  77.944  22.133  1.00  0.00     0.036 A 
BRANCH   5   9
HETATM    9  C   UNL     1      31.986  75.310  18.884  1.00  0.00     0.038 C 
BRANCH   9  10
HETATM   10  C   UNL     1      32.031  73.829  19.278  1.00  0.00     0.005 C 
BRANCH  10  11
HETATM   11  C   UNL     1      33.395  73.180  19.006  1.00  0.00     0.011 C 
BRANCH  11  12
HETATM   12  C   UNL     1      34.383  73.399  20.154  1.00  0.00     0.113 C 
BRANCH  12  13
HETATM   13  C   UNL     1      34.022  72.634  21.409  1.00  0.00     0.172 C 
HETATM   14  O   UNL     1      34.212  73.390  22.521  1.00  0.00    -0.648 OA
HETATM   15  O   UNL     1      33.590  71.491  21.444  1.00  0.00    -0.648 OA
ENDBRANCH  12  13
ENDBRANCH  11  12
ENDBRANCH  10  11
ENDBRANCH   9  10
ENDBRANCH   5   9
ENDBRANCH   1   3
TORSDOF 6
ENDMDL
MODEL 8
REMARK VINA RESULT:      -6.0      1.778      5.059
REMARK  6 active torsions:
REMARK  status: ('A' for Active; 'I' for Inactive)
REMARK    1  A    between atoms: O_1  and  C_11 
REMARK    2  A    between atoms: C_4  and  C_5 
REMARK    3  A    between atoms: C_4  and  C_6 
REMARK    4  A    between atoms: C_5  and  C_7 
REMARK    5  A    between atoms: C_6  and  C_8 
REMARK    6  A    between atoms: C_8  and  C_12 
ROOT
HETATM    1  O   UNL     1      30.351  79.217  20.807  1.00  0.00    -0.361 OA
HETATM    2  H   UNL     1      29.571  79.296  20.295  1.00  0.00     0.217 HD
ENDROOT
BRANCH   1   3
HETATM    3  C   UNL     1      31.054  78.052  20.801  1.00  0.00     0.066 A 
HETATM    4  C   UNL     1      31.100  77.271  19.646  1.00  0.00     0.043 A 
HETATM    5  C   UNL     1      31.821  76.086  19.655  1.00  0.00    -0.056 A 
HETATM    6  C   UNL     1      32.496  75.663  20.791  1.00  0.00     0.007 A 
HETATM    7  C   UNL     1      32.450  76.444  21.945  1.00  0.00     0.003 A 
HETATM    8  C   UNL     1      31.729  77.640  21.950  1.00  0.00     0.036 A 
BRANCH   5   9
HETATM    9  C   UNL     1      31.870  75.240  18.408  1.00  0.00     0.038 C 
BRANCH   9  10
HETATM   10  C   UNL     1      30.987  75.761  17.268  1.00  0.00     0.005 C 
BRANCH  10  11
HETATM   11  C   UNL     1      31.767  75.999  15.968  1.00  0.00     0.011 C 
BRANCH  11  12
HETATM   12  C   UNL     1      31.399  77.327  15.303  1.00  0.00     0.113 C 
BRANCH  12  13
HETATM   13  C   UNL     1      31.537  78.517  16.226  1.00  0.00     0.172 C 
HETATM   14  O   UNL     1      30.347  79.146  16.406  1.00  0.00    -0.648 OA
HETATM   15  O   UNL     1      32.571  78.876  16.772  1.00  0.00    -0.648 OA
ENDBRANCH  12  13
ENDBRANCH  11  12
ENDBRANCH  10  11
ENDBRANCH   9  10
ENDBRANCH   5   9
ENDBRANCH   1   3
TORSDOF 6
ENDMDL
MODEL 9
REMARK VINA RESULT:      -5.9      3.451      5.660
REMARK  6 active torsions:
REMARK  status: ('A' for Active; 'I' for Inactive)
REMARK    1  A    between atoms: O_1  and  C_11 
REMARK    2  A    between atoms: C_4  and  C_5 
REMARK    3  A    between atoms: C_4  and  C_6 
REMARK    4  A    between atoms: C_5  and  C_7 
REMARK    5  A    between atoms: C_6  and  C_8 
REMARK    6  A    between atoms: C_8  and  C_12 
ROOT
HETATM    1  O   UNL     1      34.366  72.244  22.325  1.00  0.00    -0.361 OA
HETATM    2  H   UNL     1      34.409  71.566  21.680  1.00  0.00     0.217 HD
ENDROOT
BRANCH   1   3
HETATM    3  C   UNL     1      33.292  73.078  22.364  1.00  0.00     0.066 A 
HETATM    4  C   UNL     1      33.482  74.460  22.377  1.00  0.00     0.043 A 
HETATM    5  C   UNL     1      32.377  75.298  22.418  1.00  0.00    -0.056 A 
HETATM    6  C   UNL     1      31.088  74.786  22.446  1.00  0.00     0.007 A 
HETATM    7  C   UNL     1      30.899  73.405  22.433  1.00  0.00     0.003 A 
HETATM    8  C   UNL     1      32.001  72.550  22.392  1.00  0.00     0.036 A 
BRANCH   5   9
HETATM    9  C   UNL     1      32.581  76.791  22.434  1.00  0.00     0.038 C 
BRANCH   9  10
HETATM   10  C   UNL     1      31.296  77.597  22.209  1.00  0.00     0.005 C 
BRANCH  10  11
HETATM   11  C   UNL     1      31.378  78.527  20.991  1.00  0.00     0.011 C 
BRANCH  11  12
HETATM   12  C   UNL     1      30.973  77.824  19.693  1.00  0.00     0.113 C 
BRANCH  12  13
HETATM   13  C   UNL     1      32.127  77.626  18.735  1.00  0.00     0.172 C 
HETATM   14  O   UNL     1      32.590  76.350  18.774  1.00  0.00    -0.648 OA
HETATM   15  O   UNL     1      32.588  78.481  17.992  1.00  0.00    -0.648 OA
ENDBRANCH  12  13
ENDBRANCH  11  12
ENDBRANCH  10  11
ENDBRANCH   9  10
ENDBRANCH   5   9
ENDBRANCH   1   3
TORSDOF 6
ENDMDL
