MODEL 1
REMARK VINA RESULT:      -4.1      0.000      0.000
REMARK  6 active torsions:
REMARK  status: ('A' for Active; 'I' for Inactive)
REMARK    1  A    between atoms: N_3  and  CA_7 
REMARK    2  A    between atoms: N_4  and  C_8 
REMARK    3  A    between atoms: C_5  and  C_6 
REMARK    4  A    between atoms: C_5  and  CA_7 
REMARK    5  A    between atoms: C_6  and  C_8 
REMARK    6  A    between atoms: CA_7  and  C_9 
ROOT
HETATM    1  O   UNL     1     -54.082  52.620   9.564  1.00  0.00    -0.646 OA
HETATM    2  OXT UNL     1     -53.406  51.587  11.465  1.00  0.00    -0.646 OA
HETATM    3  C   UNL     1     -53.738  51.522  10.289  1.00  0.00     0.204 C 
ENDROOT
BRANCH   3   4
HETATM    4  CA  UNL     1     -53.822  50.249   9.466  1.00  0.00     0.283 C 
BRANCH   4   5
HETATM    5  N   UNL     1     -53.282  50.532   8.136  1.00  0.00    -0.065 N 
HETATM    6  H   UNL     1     -53.348  51.533   7.948  1.00  0.00     0.275 HD
HETATM    7  H   UNL     1     -53.816  50.018   7.436  1.00  0.00     0.275 HD
HETATM    8  H   UNL     1     -52.304  50.242   8.098  1.00  0.00     0.275 HD
ENDBRANCH   4   5
BRANCH   4   9
HETATM    9  C   UNL     1     -53.121  49.065  10.150  1.00  0.00     0.045 C 
BRANCH   9  10
HETATM   10  C   UNL     1     -53.942  48.369  11.244  1.00  0.00     0.030 C 
BRANCH  10  11
HETATM   11  C   UNL     1     -53.064  48.018  12.446  1.00  0.00     0.230 C 
BRANCH  11  12
HETATM   12  N   UNL     1     -52.853  49.195  13.280  1.00  0.00    -0.079 N 
HETATM   13  H   UNL     1     -53.045  48.961  14.254  1.00  0.00     0.274 HD
HETATM   14  H   UNL     1     -53.481  49.941  12.981  1.00  0.00     0.274 HD
HETATM   15  H   UNL     1     -51.886  49.507  13.190  1.00  0.00     0.274 HD
ENDBRANCH  11  12
ENDBRANCH  10  11
ENDBRANCH   9  10
ENDBRANCH   4   9
ENDBRANCH   3   4
TORSDOF 6
ENDMDL
MODEL 2
REMARK VINA RESULT:      -4.0     12.125     12.659
REMARK  6 active torsions:
REMARK  status: ('A' for Active; 'I' for Inactive)
REMARK    1  A    between atoms: N_3  and  CA_7 
REMARK    2  A    between atoms: N_4  and  C_8 
REMARK    3  A    between atoms: C_5  and  C_6 
REMARK    4  A    between atoms: C_5  and  CA_7 
REMARK    5  A    between atoms: C_6  and  C_8 
REMARK    6  A    between atoms: CA_7  and  C_9 
ROOT
HETATM    1  O   UNL     1     -60.123  59.798  19.443  1.00  0.00    -0.646 OA
HETATM    2  OXT UNL     1     -58.056  60.089  18.559  1.00  0.00    -0.646 OA
HETATM    3  C   UNL     1     -58.972  59.343  18.880  1.00  0.00     0.204 C 
ENDROOT
BRANCH   3   4
HETATM    4  CA  UNL     1     -58.980  57.834  18.711  1.00  0.00     0.283 C 
BRANCH   4   5
HETATM    5  N   UNL     1     -59.294  57.535  17.314  1.00  0.00    -0.065 N 
HETATM    6  H   UNL     1     -59.236  56.528  17.160  1.00  0.00     0.275 HD
HETATM    7  H   UNL     1     -58.627  58.011  16.706  1.00  0.00     0.275 HD
HETATM    8  H   UNL     1     -60.238  57.858  17.101  1.00  0.00     0.275 HD
ENDBRANCH   4   5
BRANCH   4   9
HETATM    9  C   UNL     1     -57.665  57.187  19.173  1.00  0.00     0.045 C 
BRANCH   9  10
HETATM   10  C   UNL     1     -57.822  55.837  19.887  1.00  0.00     0.030 C 
BRANCH  10  11
HETATM   11  C   UNL     1     -59.206  55.714  20.526  1.00  0.00     0.230 C 
BRANCH  11  12
HETATM   12  N   UNL     1     -59.267  54.533  21.379  1.00  0.00    -0.079 N 
HETATM   13  H   UNL     1     -59.371  53.700  20.800  1.00  0.00     0.274 HD
HETATM   14  H   UNL     1     -60.065  54.610  22.009  1.00  0.00     0.274 HD
HETATM   15  H   UNL     1     -58.408  54.462  21.924  1.00  0.00     0.274 HD
ENDBRANCH  11  12
ENDBRANCH  10  11
ENDBRANCH   9  10
ENDBRANCH   4   9
ENDBRANCH   3   4
TORSDOF 6
ENDMDL
MODEL 3
REMARK VINA RESULT:      -3.9      2.136      2.831
REMARK  6 active torsions:
REMARK  status: ('A' for Active; 'I' for Inactive)
REMARK    1  A    between atoms: N_3  and  CA_7 
REMARK    2  A    between atoms: N_4  and  C_8 
REMARK    3  A    between atoms: C_5  and  C_6 
REMARK    4  A    between atoms: C_5  and  CA_7 
REMARK    5  A    between atoms: C_6  and  C_8 
REMARK    6  A    between atoms: CA_7  and  C_9 
ROOT
HETATM    1  O   UNL     1     -53.130  50.326  12.250  1.00  0.00    -0.646 OA
HETATM    2  OXT UNL     1     -53.469  52.421  11.453  1.00  0.00    -0.646 OA
HETATM    3  C   UNL     1     -53.490  51.209  11.280  1.00  0.00     0.204 C 
ENDROOT
BRANCH   3   4
HETATM    4  CA  UNL     1     -53.908  50.508  10.000  1.00  0.00     0.283 C 
BRANCH   4   5
HETATM    5  N   UNL     1     -53.376  51.272   8.871  1.00  0.00    -0.065 N 
HETATM    6  H   UNL     1     -52.380  51.440   9.013  1.00  0.00     0.275 HD
HETATM    7  H   UNL     1     -53.866  52.164   8.803  1.00  0.00     0.275 HD
HETATM    8  H   UNL     1     -53.513  50.743   8.009  1.00  0.00     0.275 HD
ENDBRANCH   4   5
BRANCH   4   9
HETATM    9  C   UNL     1     -53.475  49.034   9.973  1.00  0.00     0.045 C 
BRANCH   9  10
HETATM   10  C   UNL     1     -54.620  48.025   9.811  1.00  0.00     0.030 C 
BRANCH  10  11
HETATM   11  C   UNL     1     -54.325  47.042   8.678  1.00  0.00     0.230 C 
BRANCH  11  12
HETATM   12  N   UNL     1     -53.753  47.743   7.535  1.00  0.00    -0.079 N 
HETATM   13  H   UNL     1     -54.060  48.716   7.543  1.00  0.00     0.274 HD
HETATM   14  H   UNL     1     -54.063  47.297   6.672  1.00  0.00     0.274 HD
HETATM   15  H   UNL     1     -52.735  47.709   7.589  1.00  0.00     0.274 HD
ENDBRANCH  11  12
ENDBRANCH  10  11
ENDBRANCH   9  10
ENDBRANCH   4   9
ENDBRANCH   3   4
TORSDOF 6
ENDMDL
MODEL 4
REMARK VINA RESULT:      -3.9      2.160      3.166
REMARK  6 active torsions:
REMARK  status: ('A' for Active; 'I' for Inactive)
REMARK    1  A    between atoms: N_3  and  CA_7 
REMARK    2  A    between atoms: N_4  and  C_8 
REMARK    3  A    between atoms: C_5  and  C_6 
REMARK    4  A    between atoms: C_5  and  CA_7 
REMARK    5  A    between atoms: C_6  and  C_8 
REMARK    6  A    between atoms: CA_7  and  C_9 
ROOT
HETATM    1  O   UNL     1     -53.121  50.073  12.220  1.00  0.00    -0.646 OA
HETATM    2  OXT UNL     1     -53.467  52.197  11.507  1.00  0.00    -0.646 OA
HETATM    3  C   UNL     1     -53.474  50.993  11.283  1.00  0.00     0.204 C 
ENDROOT
BRANCH   3   4
HETATM    4  CA  UNL     1     -53.865  50.343   9.968  1.00  0.00     0.283 C 
BRANCH   4   5
HETATM    5  N   UNL     1     -53.461  51.237   8.882  1.00  0.00    -0.065 N 
HETATM    6  H   UNL     1     -54.288  51.683   8.484  1.00  0.00     0.275 HD
HETATM    7  H   UNL     1     -52.982  50.700   8.160  1.00  0.00     0.275 HD
HETATM    8  H   UNL     1     -52.832  51.953   9.248  1.00  0.00     0.275 HD
ENDBRANCH   4   5
BRANCH   4   9
HETATM    9  C   UNL     1     -53.281  48.930   9.818  1.00  0.00     0.045 C 
BRANCH   9  10
HETATM   10  C   UNL     1     -53.476  48.291   8.437  1.00  0.00     0.030 C 
BRANCH  10  11
HETATM   11  C   UNL     1     -52.147  47.780   7.879  1.00  0.00     0.230 C 
BRANCH  11  12
HETATM   12  N   UNL     1     -51.625  48.708   6.882  1.00  0.00    -0.079 N 
HETATM   13  H   UNL     1     -51.111  49.455   7.348  1.00  0.00     0.274 HD
HETATM   14  H   UNL     1     -52.400  49.109   6.353  1.00  0.00     0.274 HD
HETATM   15  H   UNL     1     -51.001  48.210   6.247  1.00  0.00     0.274 HD
ENDBRANCH  11  12
ENDBRANCH  10  11
ENDBRANCH   9  10
ENDBRANCH   4   9
ENDBRANCH   3   4
TORSDOF 6
ENDMDL
MODEL 5
REMARK VINA RESULT:      -3.9      3.496      4.120
REMARK  6 active torsions:
REMARK  status: ('A' for Active; 'I' for Inactive)
REMARK    1  A    between atoms: N_3  and  CA_7 
REMARK    2  A    between atoms: N_4  and  C_8 
REMARK    3  A    between atoms: C_5  and  C_6 
REMARK    4  A    between atoms: C_5  and  CA_7 
REMARK    5  A    between atoms: C_6  and  C_8 
REMARK    6  A    between atoms: CA_7  and  C_9 
ROOT
HETATM    1  O   UNL     1     -53.825  46.380   7.527  1.00  0.00    -0.646 OA
HETATM    2  OXT UNL     1     -55.513  46.795   8.983  1.00  0.00    -0.646 OA
HETATM    3  C   UNL     1     -54.405  47.074   8.543  1.00  0.00     0.204 C 
ENDROOT
BRANCH   3   4
HETATM    4  CA  UNL     1     -53.518  48.203   9.039  1.00  0.00     0.283 C 
BRANCH   4   5
HETATM    5  N   UNL     1     -52.802  48.755   7.889  1.00  0.00    -0.065 N 
HETATM    6  H   UNL     1     -53.120  48.294   7.037  1.00  0.00     0.275 HD
HETATM    7  H   UNL     1     -51.800  48.600   8.007  1.00  0.00     0.275 HD
HETATM    8  H   UNL     1     -52.986  49.756   7.824  1.00  0.00     0.275 HD
ENDBRANCH   4   5
BRANCH   4   9
HETATM    9  C   UNL     1     -54.309  49.270   9.812  1.00  0.00     0.045 C 
BRANCH   9  10
HETATM   10  C   UNL     1     -53.496  50.049  10.856  1.00  0.00     0.030 C 
BRANCH  10  11
HETATM   11  C   UNL     1     -53.665  51.557  10.664  1.00  0.00     0.230 C 
BRANCH  11  12
HETATM   12  N   UNL     1     -53.564  51.903   9.251  1.00  0.00    -0.079 N 
HETATM   13  H   UNL     1     -52.764  51.423   8.840  1.00  0.00     0.274 HD
HETATM   14  H   UNL     1     -53.440  52.911   9.156  1.00  0.00     0.274 HD
HETATM   15  H   UNL     1     -54.416  51.617   8.769  1.00  0.00     0.274 HD
ENDBRANCH  11  12
ENDBRANCH  10  11
ENDBRANCH   9  10
ENDBRANCH   4   9
ENDBRANCH   3   4
TORSDOF 6
ENDMDL
MODEL 6
REMARK VINA RESULT:      -3.8      1.354      2.849
REMARK  6 active torsions:
REMARK  status: ('A' for Active; 'I' for Inactive)
REMARK    1  A    between atoms: N_3  and  CA_7 
REMARK    2  A    between atoms: N_4  and  C_8 
REMARK    3  A    between atoms: C_5  and  C_6 
REMARK    4  A    between atoms: C_5  and  CA_7 
REMARK    5  A    between atoms: C_6  and  C_8 
REMARK    6  A    between atoms: CA_7  and  C_9 
ROOT
HETATM    1  O   UNL     1     -53.821  51.641   9.407  1.00  0.00    -0.646 OA
HETATM    2  OXT UNL     1     -53.431  52.192  11.571  1.00  0.00    -0.646 OA
HETATM    3  C   UNL     1     -53.559  51.336  10.706  1.00  0.00     0.204 C 
ENDROOT
BRANCH   3   4
HETATM    4  CA  UNL     1     -53.450  49.837  10.926  1.00  0.00     0.283 C 
BRANCH   4   5
HETATM    5  N   UNL     1     -53.307  49.599  12.363  1.00  0.00    -0.065 N 
HETATM    6  H   UNL     1     -52.407  49.962  12.679  1.00  0.00     0.275 HD
HETATM    7  H   UNL     1     -53.354  48.597  12.547  1.00  0.00     0.275 HD
HETATM    8  H   UNL     1     -54.060  50.072  12.862  1.00  0.00     0.275 HD
ENDBRANCH   4   5
BRANCH   4   9
HETATM    9  C   UNL     1     -54.633  49.070  10.314  1.00  0.00     0.045 C 
BRANCH   9  10
HETATM   10  C   UNL     1     -54.244  47.944   9.346  1.00  0.00     0.030 C 
BRANCH  10  11
HETATM   11  C   UNL     1     -52.828  48.152   8.807  1.00  0.00     0.230 C 
BRANCH  11  12
HETATM   12  N   UNL     1     -52.832  49.147   7.741  1.00  0.00    -0.079 N 
HETATM   13  H   UNL     1     -52.643  50.068   8.135  1.00  0.00     0.274 HD
HETATM   14  H   UNL     1     -53.746  49.153   7.286  1.00  0.00     0.274 HD
HETATM   15  H   UNL     1     -52.113  48.916   7.056  1.00  0.00     0.274 HD
ENDBRANCH  11  12
ENDBRANCH  10  11
ENDBRANCH   9  10
ENDBRANCH   4   9
ENDBRANCH   3   4
TORSDOF 6
ENDMDL
MODEL 7
REMARK VINA RESULT:      -3.8      2.728      3.095
REMARK  6 active torsions:
REMARK  status: ('A' for Active; 'I' for Inactive)
REMARK    1  A    between atoms: N_3  and  CA_7 
REMARK    2  A    between atoms: N_4  and  C_8 
REMARK    3  A    between atoms: C_5  and  C_6 
REMARK    4  A    between atoms: C_5  and  CA_7 
REMARK    5  A    between atoms: C_6  and  C_8 
REMARK    6  A    between atoms: CA_7  and  C_9 
ROOT
HETATM    1  O   UNL     1     -52.142  47.313   8.577  1.00  0.00    -0.646 OA
HETATM    2  OXT UNL     1     -54.206  47.596   7.682  1.00  0.00    -0.646 OA
HETATM    3  C   UNL     1     -53.265  48.039   8.327  1.00  0.00     0.204 C 
ENDROOT
BRANCH   3   4
HETATM    4  CA  UNL     1     -53.191  49.428   8.937  1.00  0.00     0.283 C 
BRANCH   4   5
HETATM    5  N   UNL     1     -53.323  50.406   7.857  1.00  0.00    -0.065 N 
HETATM    6  H   UNL     1     -53.940  50.033   7.134  1.00  0.00     0.275 HD
HETATM    7  H   UNL     1     -52.405  50.595   7.456  1.00  0.00     0.275 HD
HETATM    8  H   UNL     1     -53.717  51.271   8.228  1.00  0.00     0.275 HD
ENDBRANCH   4   5
BRANCH   4   9
HETATM    9  C   UNL     1     -54.230  49.632  10.050  1.00  0.00     0.045 C 
BRANCH   9  10
HETATM   10  C   UNL     1     -53.644  49.929  11.437  1.00  0.00     0.030 C 
BRANCH  10  11
HETATM   11  C   UNL     1     -53.163  48.645  12.114  1.00  0.00     0.230 C 
BRANCH  11  12
HETATM   12  N   UNL     1     -52.853  48.897  13.517  1.00  0.00    -0.079 N 
HETATM   13  H   UNL     1     -53.180  48.115  14.083  1.00  0.00     0.274 HD
HETATM   14  H   UNL     1     -53.318  49.753  13.819  1.00  0.00     0.274 HD
HETATM   15  H   UNL     1     -51.844  49.000  13.629  1.00  0.00     0.274 HD
ENDBRANCH  11  12
ENDBRANCH  10  11
ENDBRANCH   9  10
ENDBRANCH   4   9
ENDBRANCH   3   4
TORSDOF 6
ENDMDL
MODEL 8
REMARK VINA RESULT:      -3.8      3.357      4.301
REMARK  6 active torsions:
REMARK  status: ('A' for Active; 'I' for Inactive)
REMARK    1  A    between atoms: N_3  and  CA_7 
REMARK    2  A    between atoms: N_4  and  C_8 
REMARK    3  A    between atoms: C_5  and  C_6 
REMARK    4  A    between atoms: C_5  and  CA_7 
REMARK    5  A    between atoms: C_6  and  C_8 
REMARK    6  A    between atoms: CA_7  and  C_9 
ROOT
HETATM    1  O   UNL     1     -54.155  47.310   7.567  1.00  0.00    -0.646 OA
HETATM    2  OXT UNL     1     -55.712  46.361   8.914  1.00  0.00    -0.646 OA
HETATM    3  C   UNL     1     -54.591  46.827   8.762  1.00  0.00     0.204 C 
ENDROOT
BRANCH   3   4
HETATM    4  CA  UNL     1     -53.530  46.944   9.842  1.00  0.00     0.283 C 
BRANCH   4   5
HETATM    5  N   UNL     1     -52.224  47.027   9.188  1.00  0.00    -0.065 N 
HETATM    6  H   UNL     1     -51.525  46.558   9.765  1.00  0.00     0.275 HD
HETATM    7  H   UNL     1     -51.965  48.006   9.069  1.00  0.00     0.275 HD
HETATM    8  H   UNL     1     -52.272  46.574   8.275  1.00  0.00     0.275 HD
ENDBRANCH   4   5
BRANCH   4   9
HETATM    9  C   UNL     1     -53.792  48.123  10.793  1.00  0.00     0.045 C 
BRANCH   9  10
HETATM   10  C   UNL     1     -54.565  49.295  10.174  1.00  0.00     0.030 C 
BRANCH  10  11
HETATM   11  C   UNL     1     -53.609  50.383   9.684  1.00  0.00     0.230 C 
BRANCH  11  12
HETATM   12  N   UNL     1     -53.391  50.255   8.247  1.00  0.00    -0.079 N 
HETATM   13  H   UNL     1     -53.265  49.272   8.008  1.00  0.00     0.274 HD
HETATM   14  H   UNL     1     -52.557  50.779   7.982  1.00  0.00     0.274 HD
HETATM   15  H   UNL     1     -54.199  50.626   7.746  1.00  0.00     0.274 HD
ENDBRANCH  11  12
ENDBRANCH  10  11
ENDBRANCH   9  10
ENDBRANCH   4   9
ENDBRANCH   3   4
TORSDOF 6
ENDMDL
MODEL 9
REMARK VINA RESULT:      -3.7      1.665      3.584
REMARK  6 active torsions:
REMARK  status: ('A' for Active; 'I' for Inactive)
REMARK    1  A    between atoms: N_3  and  CA_7 
REMARK    2  A    between atoms: N_4  and  C_8 
REMARK    3  A    between atoms: C_5  and  C_6 
REMARK    4  A    between atoms: C_5  and  CA_7 
REMARK    5  A    between atoms: C_6  and  C_8 
REMARK    6  A    between atoms: CA_7  and  C_9 
ROOT
HETATM    1  O   UNL     1     -53.064  49.664  13.311  1.00  0.00    -0.646 OA
HETATM    2  OXT UNL     1     -53.494  51.000  11.529  1.00  0.00    -0.646 OA
HETATM    3  C   UNL     1     -53.242  49.890  11.981  1.00  0.00     0.204 C 
ENDROOT
BRANCH   3   4
HETATM    4  CA  UNL     1     -53.091  48.620  11.164  1.00  0.00     0.283 C 
BRANCH   4   5
HETATM    5  N   UNL     1     -52.914  47.502  12.091  1.00  0.00    -0.065 N 
HETATM    6  H   UNL     1     -53.828  47.161  12.391  1.00  0.00     0.275 HD
HETATM    7  H   UNL     1     -52.384  47.816  12.904  1.00  0.00     0.275 HD
HETATM    8  H   UNL     1     -52.406  46.750  11.624  1.00  0.00     0.275 HD
ENDBRANCH   4   5
BRANCH   4   9
HETATM    9  C   UNL     1     -54.264  48.404  10.195  1.00  0.00     0.045 C 
BRANCH   9  10
HETATM   10  C   UNL     1     -53.861  48.127   8.740  1.00  0.00     0.030 C 
BRANCH  10  11
HETATM   11  C   UNL     1     -52.833  49.149   8.254  1.00  0.00     0.230 C 
BRANCH  11  12
HETATM   12  N   UNL     1     -53.423  50.482   8.215  1.00  0.00    -0.079 N 
HETATM   13  H   UNL     1     -53.006  51.017   7.453  1.00  0.00     0.274 HD
HETATM   14  H   UNL     1     -53.246  50.958   9.100  1.00  0.00     0.274 HD
HETATM   15  H   UNL     1     -54.429  50.405   8.065  1.00  0.00     0.274 HD
ENDBRANCH  11  12
ENDBRANCH  10  11
ENDBRANCH   9  10
ENDBRANCH   4   9
ENDBRANCH   3   4
TORSDOF 6
ENDMDL
