MODEL 1
REMARK VINA RESULT:      -4.0      0.000      0.000
REMARK  6 active torsions:
REMARK  status: ('A' for Active; 'I' for Inactive)
REMARK    1  A    between atoms: N_3  and  CA_7 
REMARK    2  A    between atoms: N_4  and  C_8 
REMARK    3  A    between atoms: C_5  and  C_6 
REMARK    4  A    between atoms: C_5  and  CA_7 
REMARK    5  A    between atoms: C_6  and  C_8 
REMARK    6  A    between atoms: CA_7  and  C_9 
ROOT
HETATM    1  O   UNL     1     -53.995  52.629   9.568  1.00  0.00    -0.646 OA
HETATM    2  OXT UNL     1     -53.414  51.605  11.506  1.00  0.00    -0.646 OA
HETATM    3  C   UNL     1     -53.729  51.530  10.325  1.00  0.00     0.204 C 
ENDROOT
BRANCH   3   4
HETATM    4  CA  UNL     1     -53.872  50.245   9.530  1.00  0.00     0.283 C 
BRANCH   4   5
HETATM    5  N   UNL     1     -53.395  50.496   8.170  1.00  0.00    -0.065 N 
HETATM    6  H   UNL     1     -52.465  50.092   8.056  1.00  0.00     0.275 HD
HETATM    7  H   UNL     1     -53.352  51.502   8.006  1.00  0.00     0.275 HD
HETATM    8  H   UNL     1     -54.037  50.070   7.501  1.00  0.00     0.275 HD
ENDBRANCH   4   5
BRANCH   4   9
HETATM    9  C   UNL     1     -53.155  49.062  10.199  1.00  0.00     0.045 C 
BRANCH   9  10
HETATM   10  C   UNL     1     -53.970  48.336  11.278  1.00  0.00     0.030 C 
BRANCH  10  11
HETATM   11  C   UNL     1     -53.102  48.016  12.496  1.00  0.00     0.230 C 
BRANCH  11  12
HETATM   12  N   UNL     1     -52.831  49.230  13.258  1.00  0.00    -0.079 N 
HETATM   13  H   UNL     1     -52.311  49.887  12.678  1.00  0.00     0.274 HD
HETATM   14  H   UNL     1     -52.280  48.996  14.084  1.00  0.00     0.274 HD
HETATM   15  H   UNL     1     -53.713  49.654  13.546  1.00  0.00     0.274 HD
ENDBRANCH  11  12
ENDBRANCH  10  11
ENDBRANCH   9  10
ENDBRANCH   4   9
ENDBRANCH   3   4
TORSDOF 6
ENDMDL
MODEL 2
REMARK VINA RESULT:      -4.0     12.094     12.634
REMARK  6 active torsions:
REMARK  status: ('A' for Active; 'I' for Inactive)
REMARK    1  A    between atoms: N_3  and  CA_7 
REMARK    2  A    between atoms: N_4  and  C_8 
REMARK    3  A    between atoms: C_5  and  C_6 
REMARK    4  A    between atoms: C_5  and  CA_7 
REMARK    5  A    between atoms: C_6  and  C_8 
REMARK    6  A    between atoms: CA_7  and  C_9 
ROOT
HETATM    1  O   UNL     1     -60.096  59.826  19.437  1.00  0.00    -0.646 OA
HETATM    2  OXT UNL     1     -58.049  60.081  18.496  1.00  0.00    -0.646 OA
HETATM    3  C   UNL     1     -58.961  59.350  18.856  1.00  0.00     0.204 C 
ENDROOT
BRANCH   3   4
HETATM    4  CA  UNL     1     -58.984  57.837  18.722  1.00  0.00     0.283 C 
BRANCH   4   5
HETATM    5  N   UNL     1     -59.287  57.510  17.328  1.00  0.00    -0.065 N 
HETATM    6  H   UNL     1     -59.558  56.529  17.260  1.00  0.00     0.275 HD
HETATM    7  H   UNL     1     -58.461  57.676  16.753  1.00  0.00     0.275 HD
HETATM    8  H   UNL     1     -60.053  58.098  17.000  1.00  0.00     0.275 HD
ENDBRANCH   4   5
BRANCH   4   9
HETATM    9  C   UNL     1     -57.681  57.188  19.212  1.00  0.00     0.045 C 
BRANCH   9  10
HETATM   10  C   UNL     1     -57.855  55.830  19.908  1.00  0.00     0.030 C 
BRANCH  10  11
HETATM   11  C   UNL     1     -59.248  55.708  20.527  1.00  0.00     0.230 C 
BRANCH  11  12
HETATM   12  N   UNL     1     -59.328  54.514  21.360  1.00  0.00    -0.079 N 
HETATM   13  H   UNL     1     -59.635  54.773  22.298  1.00  0.00     0.274 HD
HETATM   14  H   UNL     1     -58.410  54.073  21.413  1.00  0.00     0.274 HD
HETATM   15  H   UNL     1     -59.997  53.859  20.953  1.00  0.00     0.274 HD
ENDBRANCH  11  12
ENDBRANCH  10  11
ENDBRANCH   9  10
ENDBRANCH   4   9
ENDBRANCH   3   4
TORSDOF 6
ENDMDL
MODEL 3
REMARK VINA RESULT:      -3.9      1.840      2.094
REMARK  6 active torsions:
REMARK  status: ('A' for Active; 'I' for Inactive)
REMARK    1  A    between atoms: N_3  and  CA_7 
REMARK    2  A    between atoms: N_4  and  C_8 
REMARK    3  A    between atoms: C_5  and  C_6 
REMARK    4  A    between atoms: C_5  and  CA_7 
REMARK    5  A    between atoms: C_6  and  C_8 
REMARK    6  A    between atoms: CA_7  and  C_9 
ROOT
HETATM    1  O   UNL     1     -54.198  52.758   9.494  1.00  0.00    -0.646 OA
HETATM    2  OXT UNL     1     -53.413  51.975  11.472  1.00  0.00    -0.646 OA
HETATM    3  C   UNL     1     -53.781  51.763  10.324  1.00  0.00     0.204 C 
ENDROOT
BRANCH   3   4
HETATM    4  CA  UNL     1     -53.833  50.403   9.651  1.00  0.00     0.283 C 
BRANCH   4   5
HETATM    5  N   UNL     1     -53.257  50.537   8.313  1.00  0.00    -0.065 N 
HETATM    6  H   UNL     1     -52.255  50.348   8.353  1.00  0.00     0.275 HD
HETATM    7  H   UNL     1     -53.412  51.485   7.970  1.00  0.00     0.275 HD
HETATM    8  H   UNL     1     -53.704  49.870   7.683  1.00  0.00     0.275 HD
ENDBRANCH   4   5
BRANCH   4   9
HETATM    9  C   UNL     1     -53.143  49.313  10.485  1.00  0.00     0.045 C 
BRANCH   9  10
HETATM   10  C   UNL     1     -54.048  48.144  10.900  1.00  0.00     0.030 C 
BRANCH  10  11
HETATM   11  C   UNL     1     -55.309  48.096  10.036  1.00  0.00     0.230 C 
BRANCH  11  12
HETATM   12  N   UNL     1     -55.355  46.852   9.277  1.00  0.00    -0.079 N 
HETATM   13  H   UNL     1     -55.611  47.052   8.311  1.00  0.00     0.274 HD
HETATM   14  H   UNL     1     -56.049  46.227   9.689  1.00  0.00     0.274 HD
HETATM   15  H   UNL     1     -54.439  46.404   9.300  1.00  0.00     0.274 HD
ENDBRANCH  11  12
ENDBRANCH  10  11
ENDBRANCH   9  10
ENDBRANCH   4   9
ENDBRANCH   3   4
TORSDOF 6
ENDMDL
MODEL 4
REMARK VINA RESULT:      -3.9      3.425      3.946
REMARK  6 active torsions:
REMARK  status: ('A' for Active; 'I' for Inactive)
REMARK    1  A    between atoms: N_3  and  CA_7 
REMARK    2  A    between atoms: N_4  and  C_8 
REMARK    3  A    between atoms: C_5  and  C_6 
REMARK    4  A    between atoms: C_5  and  CA_7 
REMARK    5  A    between atoms: C_6  and  C_8 
REMARK    6  A    between atoms: CA_7  and  C_9 
ROOT
HETATM    1  O   UNL     1     -53.797  47.137   7.302  1.00  0.00    -0.646 OA
HETATM    2  OXT UNL     1     -55.081  46.970   9.163  1.00  0.00    -0.646 OA
HETATM    3  C   UNL     1     -54.189  47.533   8.543  1.00  0.00     0.204 C 
ENDROOT
BRANCH   3   4
HETATM    4  CA  UNL     1     -53.392  48.729   9.035  1.00  0.00     0.283 C 
BRANCH   4   5
HETATM    5  N   UNL     1     -52.737  49.344   7.880  1.00  0.00    -0.065 N 
HETATM    6  H   UNL     1     -53.408  49.432   7.116  1.00  0.00     0.275 HD
HETATM    7  H   UNL     1     -51.956  48.760   7.581  1.00  0.00     0.275 HD
HETATM    8  H   UNL     1     -52.391  50.268   8.138  1.00  0.00     0.275 HD
ENDBRANCH   4   5
BRANCH   4   9
HETATM    9  C   UNL     1     -54.258  49.723   9.823  1.00  0.00     0.045 C 
BRANCH   9  10
HETATM   10  C   UNL     1     -53.533  50.455  10.960  1.00  0.00     0.030 C 
BRANCH  10  11
HETATM   11  C   UNL     1     -53.581  51.970  10.754  1.00  0.00     0.230 C 
BRANCH  11  12
HETATM   12  N   UNL     1     -53.881  52.282   9.362  1.00  0.00    -0.079 N 
HETATM   13  H   UNL     1     -54.721  51.781   9.074  1.00  0.00     0.274 HD
HETATM   14  H   UNL     1     -53.098  51.997   8.773  1.00  0.00     0.274 HD
HETATM   15  H   UNL     1     -54.033  53.286   9.263  1.00  0.00     0.274 HD
ENDBRANCH  11  12
ENDBRANCH  10  11
ENDBRANCH   9  10
ENDBRANCH   4   9
ENDBRANCH   3   4
TORSDOF 6
ENDMDL
MODEL 5
REMARK VINA RESULT:      -3.9      2.259      2.798
REMARK  6 active torsions:
REMARK  status: ('A' for Active; 'I' for Inactive)
REMARK    1  A    between atoms: N_3  and  CA_7 
REMARK    2  A    between atoms: N_4  and  C_8 
REMARK    3  A    between atoms: C_5  and  C_6 
REMARK    4  A    between atoms: C_5  and  CA_7 
REMARK    5  A    between atoms: C_6  and  C_8 
REMARK    6  A    between atoms: CA_7  and  C_9 
ROOT
HETATM    1  O   UNL     1     -53.449  52.283  11.576  1.00  0.00    -0.646 OA
HETATM    2  OXT UNL     1     -53.178  50.128  12.228  1.00  0.00    -0.646 OA
HETATM    3  C   UNL     1     -53.479  50.940  11.363  1.00  0.00     0.204 C 
ENDROOT
BRANCH   3   4
HETATM    4  CA  UNL     1     -53.922  50.599   9.951  1.00  0.00     0.283 C 
BRANCH   4   5
HETATM    5  N   UNL     1     -53.489  51.680   9.066  1.00  0.00    -0.065 N 
HETATM    6  H   UNL     1     -53.634  52.578   9.529  1.00  0.00     0.275 HD
HETATM    7  H   UNL     1     -54.031  51.651   8.202  1.00  0.00     0.275 HD
HETATM    8  H   UNL     1     -52.498  51.565   8.849  1.00  0.00     0.275 HD
ENDBRANCH   4   5
BRANCH   4   9
HETATM    9  C   UNL     1     -53.414  49.222   9.496  1.00  0.00     0.045 C 
BRANCH   9  10
HETATM   10  C   UNL     1     -54.425  48.077   9.642  1.00  0.00     0.030 C 
BRANCH  10  11
HETATM   11  C   UNL     1     -54.215  47.021   8.556  1.00  0.00     0.230 C 
BRANCH  11  12
HETATM   12  N   UNL     1     -53.637  47.629   7.363  1.00  0.00    -0.079 N 
HETATM   13  H   UNL     1     -52.748  48.067   7.601  1.00  0.00     0.274 HD
HETATM   14  H   UNL     1     -54.276  48.335   6.998  1.00  0.00     0.274 HD
HETATM   15  H   UNL     1     -53.483  46.910   6.655  1.00  0.00     0.274 HD
ENDBRANCH  11  12
ENDBRANCH  10  11
ENDBRANCH   9  10
ENDBRANCH   4   9
ENDBRANCH   3   4
TORSDOF 6
ENDMDL
MODEL 6
REMARK VINA RESULT:      -3.9      2.112      2.882
REMARK  6 active torsions:
REMARK  status: ('A' for Active; 'I' for Inactive)
REMARK    1  A    between atoms: N_3  and  CA_7 
REMARK    2  A    between atoms: N_4  and  C_8 
REMARK    3  A    between atoms: C_5  and  C_6 
REMARK    4  A    between atoms: C_5  and  CA_7 
REMARK    5  A    between atoms: C_6  and  C_8 
REMARK    6  A    between atoms: CA_7  and  C_9 
ROOT
HETATM    1  O   UNL     1     -53.115  50.184  12.299  1.00  0.00    -0.646 OA
HETATM    2  OXT UNL     1     -53.446  52.291  11.531  1.00  0.00    -0.646 OA
HETATM    3  C   UNL     1     -53.480  51.082  11.344  1.00  0.00     0.204 C 
ENDROOT
BRANCH   3   4
HETATM    4  CA  UNL     1     -53.919  50.399  10.061  1.00  0.00     0.283 C 
BRANCH   4   5
HETATM    5  N   UNL     1     -53.445  51.204   8.934  1.00  0.00    -0.065 N 
HETATM    6  H   UNL     1     -53.226  52.146   9.258  1.00  0.00     0.275 HD
HETATM    7  H   UNL     1     -54.171  51.249   8.220  1.00  0.00     0.275 HD
HETATM    8  H   UNL     1     -52.607  50.776   8.541  1.00  0.00     0.275 HD
ENDBRANCH   4   5
BRANCH   4   9
HETATM    9  C   UNL     1     -53.447  48.939   9.985  1.00  0.00     0.045 C 
BRANCH   9  10
HETATM   10  C   UNL     1     -54.557  47.912   9.724  1.00  0.00     0.030 C 
BRANCH  10  11
HETATM   11  C   UNL     1     -54.164  46.956   8.597  1.00  0.00     0.230 C 
BRANCH  11  12
HETATM   12  N   UNL     1     -53.679  47.706   7.444  1.00  0.00    -0.079 N 
HETATM   13  H   UNL     1     -53.272  47.062   6.766  1.00  0.00     0.274 HD
HETATM   14  H   UNL     1     -52.969  48.374   7.747  1.00  0.00     0.274 HD
HETATM   15  H   UNL     1     -54.455  48.207   7.013  1.00  0.00     0.274 HD
ENDBRANCH  11  12
ENDBRANCH  10  11
ENDBRANCH   9  10
ENDBRANCH   4   9
ENDBRANCH   3   4
TORSDOF 6
ENDMDL
MODEL 7
REMARK VINA RESULT:      -3.8      0.791      1.312
REMARK  6 active torsions:
REMARK  status: ('A' for Active; 'I' for Inactive)
REMARK    1  A    between atoms: N_3  and  CA_7 
REMARK    2  A    between atoms: N_4  and  C_8 
REMARK    3  A    between atoms: C_5  and  C_6 
REMARK    4  A    between atoms: C_5  and  CA_7 
REMARK    5  A    between atoms: C_6  and  C_8 
REMARK    6  A    between atoms: CA_7  and  C_9 
ROOT
HETATM    1  O   UNL     1     -53.385  52.319  11.537  1.00  0.00    -0.646 OA
HETATM    2  OXT UNL     1     -54.095  52.735   9.424  1.00  0.00    -0.646 OA
HETATM    3  C   UNL     1     -53.832  51.933  10.311  1.00  0.00     0.204 C 
ENDROOT
BRANCH   3   4
HETATM    4  CA  UNL     1     -53.955  50.424  10.200  1.00  0.00     0.283 C 
BRANCH   4   5
HETATM    5  N   UNL     1     -53.469  50.025   8.879  1.00  0.00    -0.065 N 
HETATM    6  H   UNL     1     -52.826  50.734   8.525  1.00  0.00     0.275 HD
HETATM    7  H   UNL     1     -54.259  49.933   8.241  1.00  0.00     0.275 HD
HETATM    8  H   UNL     1     -52.984  49.130   8.951  1.00  0.00     0.275 HD
ENDBRANCH   4   5
BRANCH   4   9
HETATM    9  C   UNL     1     -53.231  49.694  11.342  1.00  0.00     0.045 C 
BRANCH   9  10
HETATM   10  C   UNL     1     -53.090  48.177  11.155  1.00  0.00     0.030 C 
BRANCH  10  11
HETATM   11  C   UNL     1     -52.672  47.502  12.462  1.00  0.00     0.230 C 
BRANCH  11  12
HETATM   12  N   UNL     1     -52.746  48.449  13.568  1.00  0.00    -0.079 N 
HETATM   13  H   UNL     1     -51.820  48.837  13.747  1.00  0.00     0.274 HD
HETATM   14  H   UNL     1     -53.081  47.970  14.404  1.00  0.00     0.274 HD
HETATM   15  H   UNL     1     -53.389  49.203  13.327  1.00  0.00     0.274 HD
ENDBRANCH  11  12
ENDBRANCH  10  11
ENDBRANCH   9  10
ENDBRANCH   4   9
ENDBRANCH   3   4
TORSDOF 6
ENDMDL
MODEL 8
REMARK VINA RESULT:      -3.8      3.075      4.981
REMARK  6 active torsions:
REMARK  status: ('A' for Active; 'I' for Inactive)
REMARK    1  A    between atoms: N_3  and  CA_7 
REMARK    2  A    between atoms: N_4  and  C_8 
REMARK    3  A    between atoms: C_5  and  C_6 
REMARK    4  A    between atoms: C_5  and  CA_7 
REMARK    5  A    between atoms: C_6  and  C_8 
REMARK    6  A    between atoms: CA_7  and  C_9 
ROOT
HETATM    1  O   UNL     1     -50.968  48.355  15.760  1.00  0.00    -0.646 OA
HETATM    2  OXT UNL     1     -52.571  49.946  15.559  1.00  0.00    -0.646 OA
HETATM    3  C   UNL     1     -51.977  48.981  15.096  1.00  0.00     0.204 C 
ENDROOT
BRANCH   3   4
HETATM    4  CA  UNL     1     -52.253  48.339  13.748  1.00  0.00     0.283 C 
BRANCH   4   5
HETATM    5  N   UNL     1     -52.334  46.892  13.943  1.00  0.00    -0.065 N 
HETATM    6  H   UNL     1     -51.418  46.474  13.778  1.00  0.00     0.275 HD
HETATM    7  H   UNL     1     -53.011  46.498  13.289  1.00  0.00     0.275 HD
HETATM    8  H   UNL     1     -52.631  46.694  14.899  1.00  0.00     0.275 HD
ENDBRANCH   4   5
BRANCH   4   9
HETATM    9  C   UNL     1     -53.507  48.916  13.073  1.00  0.00     0.045 C 
BRANCH   9  10
HETATM   10  C   UNL     1     -53.240  49.745  11.809  1.00  0.00     0.030 C 
BRANCH  10  11
HETATM   11  C   UNL     1     -54.206  49.360  10.688  1.00  0.00     0.230 C 
BRANCH  11  12
HETATM   12  N   UNL     1     -54.066  50.276   9.562  1.00  0.00    -0.079 N 
HETATM   13  H   UNL     1     -53.587  49.803   8.796  1.00  0.00     0.274 HD
HETATM   14  H   UNL     1     -53.522  51.090   9.851  1.00  0.00     0.274 HD
HETATM   15  H   UNL     1     -54.990  50.577   9.251  1.00  0.00     0.274 HD
ENDBRANCH  11  12
ENDBRANCH  10  11
ENDBRANCH   9  10
ENDBRANCH   4   9
ENDBRANCH   3   4
TORSDOF 6
ENDMDL
MODEL 9
REMARK VINA RESULT:      -3.8      1.316      2.857
REMARK  6 active torsions:
REMARK  status: ('A' for Active; 'I' for Inactive)
REMARK    1  A    between atoms: N_3  and  CA_7 
REMARK    2  A    between atoms: N_4  and  C_8 
REMARK    3  A    between atoms: C_5  and  C_6 
REMARK    4  A    between atoms: C_5  and  CA_7 
REMARK    5  A    between atoms: C_6  and  C_8 
REMARK    6  A    between atoms: CA_7  and  C_9 
ROOT
HETATM    1  O   UNL     1     -53.815  51.414   9.442  1.00  0.00    -0.646 OA
HETATM    2  OXT UNL     1     -53.471  52.064  11.587  1.00  0.00    -0.646 OA
HETATM    3  C   UNL     1     -53.550  51.171  10.754  1.00  0.00     0.204 C 
ENDROOT
BRANCH   3   4
HETATM    4  CA  UNL     1     -53.373  49.688  11.031  1.00  0.00     0.283 C 
BRANCH   4   5
HETATM    5  N   UNL     1     -53.113  49.522  12.462  1.00  0.00    -0.065 N 
HETATM    6  H   UNL     1     -52.818  50.415  12.860  1.00  0.00     0.275 HD
HETATM    7  H   UNL     1     -52.377  48.830  12.595  1.00  0.00     0.275 HD
HETATM    8  H   UNL     1     -53.965  49.207  12.927  1.00  0.00     0.275 HD
ENDBRANCH   4   5
BRANCH   4   9
HETATM    9  C   UNL     1     -54.570  48.856  10.547  1.00  0.00     0.045 C 
BRANCH   9  10
HETATM   10  C   UNL     1     -54.221  47.728   9.566  1.00  0.00     0.030 C 
BRANCH  10  11
HETATM   11  C   UNL     1     -52.875  47.989   8.890  1.00  0.00     0.230 C 
BRANCH  11  12
HETATM   12  N   UNL     1     -53.046  48.878   7.747  1.00  0.00    -0.079 N 
HETATM   13  H   UNL     1     -53.717  49.609   7.981  1.00  0.00     0.274 HD
HETATM   14  H   UNL     1     -53.391  48.343   6.949  1.00  0.00     0.274 HD
HETATM   15  H   UNL     1     -52.150  49.303   7.509  1.00  0.00     0.274 HD
ENDBRANCH  11  12
ENDBRANCH  10  11
ENDBRANCH   9  10
ENDBRANCH   4   9
ENDBRANCH   3   4
TORSDOF 6
ENDMDL
