MODEL 1
REMARK VINA RESULT:      -4.0      0.000      0.000
REMARK  6 active torsions:
REMARK  status: ('A' for Active; 'I' for Inactive)
REMARK    1  A    between atoms: N_3  and  CA_7 
REMARK    2  A    between atoms: N_4  and  C_8 
REMARK    3  A    between atoms: C_5  and  C_6 
REMARK    4  A    between atoms: C_5  and  CA_7 
REMARK    5  A    between atoms: C_6  and  C_8 
REMARK    6  A    between atoms: CA_7  and  C_9 
ROOT
HETATM    1  O   UNL     1     -54.023  52.508   9.629  1.00  0.00    -0.646 OA
HETATM    2  OXT UNL     1     -53.417  51.375  11.497  1.00  0.00    -0.646 OA
HETATM    3  C   UNL     1     -53.719  51.371  10.311  1.00  0.00     0.204 C 
ENDROOT
BRANCH   3   4
HETATM    4  CA  UNL     1     -53.802  50.140   9.426  1.00  0.00     0.283 C 
BRANCH   4   5
HETATM    5  N   UNL     1     -53.314  50.502   8.096  1.00  0.00    -0.065 N 
HETATM    6  H   UNL     1     -53.374  51.514   7.976  1.00  0.00     0.275 HD
HETATM    7  H   UNL     1     -53.884  50.041   7.387  1.00  0.00     0.275 HD
HETATM    8  H   UNL     1     -52.342  50.205   7.998  1.00  0.00     0.275 HD
ENDBRANCH   4   5
BRANCH   4   9
HETATM    9  C   UNL     1     -53.052  48.939  10.025  1.00  0.00     0.045 C 
BRANCH   9  10
HETATM   10  C   UNL     1     -53.839  48.140  11.072  1.00  0.00     0.030 C 
BRANCH  10  11
HETATM   11  C   UNL     1     -53.019  47.958  12.350  1.00  0.00     0.230 C 
BRANCH  11  12
HETATM   12  N   UNL     1     -53.434  48.925  13.360  1.00  0.00    -0.079 N 
HETATM   13  H   UNL     1     -53.050  49.842  13.132  1.00  0.00     0.274 HD
HETATM   14  H   UNL     1     -53.089  48.631  14.274  1.00  0.00     0.274 HD
HETATM   15  H   UNL     1     -54.452  48.979  13.381  1.00  0.00     0.274 HD
ENDBRANCH  11  12
ENDBRANCH  10  11
ENDBRANCH   9  10
ENDBRANCH   4   9
ENDBRANCH   3   4
TORSDOF 6
ENDMDL
MODEL 2
REMARK VINA RESULT:      -3.9      1.772      2.259
REMARK  6 active torsions:
REMARK  status: ('A' for Active; 'I' for Inactive)
REMARK    1  A    between atoms: N_3  and  CA_7 
REMARK    2  A    between atoms: N_4  and  C_8 
REMARK    3  A    between atoms: C_5  and  C_6 
REMARK    4  A    between atoms: C_5  and  CA_7 
REMARK    5  A    between atoms: C_6  and  C_8 
REMARK    6  A    between atoms: CA_7  and  C_9 
ROOT
HETATM    1  O   UNL     1     -53.421  51.711  11.451  1.00  0.00    -0.646 OA
HETATM    2  OXT UNL     1     -54.122  52.784   9.580  1.00  0.00    -0.646 OA
HETATM    3  C   UNL     1     -53.817  51.744  10.150  1.00  0.00     0.204 C 
ENDROOT
BRANCH   3   4
HETATM    4  CA  UNL     1     -53.828  50.361   9.524  1.00  0.00     0.283 C 
BRANCH   4   5
HETATM    5  N   UNL     1     -53.187  50.451   8.212  1.00  0.00    -0.065 N 
HETATM    6  H   UNL     1     -53.171  51.426   7.908  1.00  0.00     0.275 HD
HETATM    7  H   UNL     1     -53.711  49.893   7.538  1.00  0.00     0.275 HD
HETATM    8  H   UNL     1     -52.232  50.099   8.275  1.00  0.00     0.275 HD
ENDBRANCH   4   5
BRANCH   4   9
HETATM    9  C   UNL     1     -53.175  49.305  10.429  1.00  0.00     0.045 C 
BRANCH   9  10
HETATM   10  C   UNL     1     -54.137  48.250  10.992  1.00  0.00     0.030 C 
BRANCH  10  11
HETATM   11  C   UNL     1     -55.324  48.035  10.053  1.00  0.00     0.230 C 
BRANCH  11  12
HETATM   12  N   UNL     1     -55.107  46.855   9.224  1.00  0.00    -0.079 N 
HETATM   13  H   UNL     1     -54.907  46.052   9.821  1.00  0.00     0.274 HD
HETATM   14  H   UNL     1     -54.317  47.018   8.599  1.00  0.00     0.274 HD
HETATM   15  H   UNL     1     -55.944  46.668   8.672  1.00  0.00     0.274 HD
ENDBRANCH  11  12
ENDBRANCH  10  11
ENDBRANCH   9  10
ENDBRANCH   4   9
ENDBRANCH   3   4
TORSDOF 6
ENDMDL
MODEL 3
REMARK VINA RESULT:      -3.9      2.166      2.820
REMARK  6 active torsions:
REMARK  status: ('A' for Active; 'I' for Inactive)
REMARK    1  A    between atoms: N_3  and  CA_7 
REMARK    2  A    between atoms: N_4  and  C_8 
REMARK    3  A    between atoms: C_5  and  C_6 
REMARK    4  A    between atoms: C_5  and  CA_7 
REMARK    5  A    between atoms: C_6  and  C_8 
REMARK    6  A    between atoms: CA_7  and  C_9 
ROOT
HETATM    1  O   UNL     1     -53.161  50.207  12.237  1.00  0.00    -0.646 OA
HETATM    2  OXT UNL     1     -53.480  52.314  11.463  1.00  0.00    -0.646 OA
HETATM    3  C   UNL     1     -53.500  51.105  11.273  1.00  0.00     0.204 C 
ENDROOT
BRANCH   3   4
HETATM    4  CA  UNL     1     -53.892  50.423   9.974  1.00  0.00     0.283 C 
BRANCH   4   5
HETATM    5  N   UNL     1     -53.402  51.242   8.865  1.00  0.00    -0.065 N 
HETATM    6  H   UNL     1     -53.515  50.731   7.989  1.00  0.00     0.275 HD
HETATM    7  H   UNL     1     -52.415  51.454   9.010  1.00  0.00     0.275 HD
HETATM    8  H   UNL     1     -53.934  52.111   8.824  1.00  0.00     0.275 HD
ENDBRANCH   4   5
BRANCH   4   9
HETATM    9  C   UNL     1     -53.394  48.971   9.903  1.00  0.00     0.045 C 
BRANCH   9  10
HETATM   10  C   UNL     1     -54.497  47.913   9.762  1.00  0.00     0.030 C 
BRANCH  10  11
HETATM   11  C   UNL     1     -54.220  46.990   8.575  1.00  0.00     0.230 C 
BRANCH  11  12
HETATM   12  N   UNL     1     -53.687  47.754   7.453  1.00  0.00    -0.079 N 
HETATM   13  H   UNL     1     -53.349  48.656   7.786  1.00  0.00     0.274 HD
HETATM   14  H   UNL     1     -54.423  47.901   6.762  1.00  0.00     0.274 HD
HETATM   15  H   UNL     1     -52.917  47.239   7.026  1.00  0.00     0.274 HD
ENDBRANCH  11  12
ENDBRANCH  10  11
ENDBRANCH   9  10
ENDBRANCH   4   9
ENDBRANCH   3   4
TORSDOF 6
ENDMDL
MODEL 4
REMARK VINA RESULT:      -3.9     12.318     12.834
REMARK  6 active torsions:
REMARK  status: ('A' for Active; 'I' for Inactive)
REMARK    1  A    between atoms: N_3  and  CA_7 
REMARK    2  A    between atoms: N_4  and  C_8 
REMARK    3  A    between atoms: C_5  and  C_6 
REMARK    4  A    between atoms: C_5  and  CA_7 
REMARK    5  A    between atoms: C_6  and  C_8 
REMARK    6  A    between atoms: CA_7  and  C_9 
ROOT
HETATM    1  O   UNL     1     -60.340  59.820  19.396  1.00  0.00    -0.646 OA
HETATM    2  OXT UNL     1     -58.237  60.177  18.629  1.00  0.00    -0.646 OA
HETATM    3  C   UNL     1     -59.144  59.402  18.899  1.00  0.00     0.204 C 
ENDROOT
BRANCH   3   4
HETATM    4  CA  UNL     1     -59.095  57.893  18.734  1.00  0.00     0.283 C 
BRANCH   4   5
HETATM    5  N   UNL     1     -59.391  57.580  17.336  1.00  0.00    -0.065 N 
HETATM    6  H   UNL     1     -60.399  57.471  17.218  1.00  0.00     0.275 HD
HETATM    7  H   UNL     1     -58.923  56.713  17.075  1.00  0.00     0.275 HD
HETATM    8  H   UNL     1     -59.059  58.339  16.740  1.00  0.00     0.275 HD
ENDBRANCH   4   5
BRANCH   4   9
HETATM    9  C   UNL     1     -57.758  57.298  19.202  1.00  0.00     0.045 C 
BRANCH   9  10
HETATM   10  C   UNL     1     -57.863  55.934  19.897  1.00  0.00     0.030 C 
BRANCH  10  11
HETATM   11  C   UNL     1     -59.243  55.747  20.529  1.00  0.00     0.230 C 
BRANCH  11  12
HETATM   12  N   UNL     1     -59.257  54.558  21.373  1.00  0.00    -0.079 N 
HETATM   13  H   UNL     1     -58.880  54.789  22.292  1.00  0.00     0.274 HD
HETATM   14  H   UNL     1     -58.685  53.830  20.945  1.00  0.00     0.274 HD
HETATM   15  H   UNL     1     -60.215  54.223  21.473  1.00  0.00     0.274 HD
ENDBRANCH  11  12
ENDBRANCH  10  11
ENDBRANCH   9  10
ENDBRANCH   4   9
ENDBRANCH   3   4
TORSDOF 6
ENDMDL
MODEL 5
REMARK VINA RESULT:      -3.9      3.229      4.278
REMARK  6 active torsions:
REMARK  status: ('A' for Active; 'I' for Inactive)
REMARK    1  A    between atoms: N_3  and  CA_7 
REMARK    2  A    between atoms: N_4  and  C_8 
REMARK    3  A    between atoms: C_5  and  C_6 
REMARK    4  A    between atoms: C_5  and  CA_7 
REMARK    5  A    between atoms: C_6  and  C_8 
REMARK    6  A    between atoms: CA_7  and  C_9 
ROOT
HETATM    1  O   UNL     1     -54.180  47.403   7.719  1.00  0.00    -0.646 OA
HETATM    2  OXT UNL     1     -55.727  46.204   8.863  1.00  0.00    -0.646 OA
HETATM    3  C   UNL     1     -54.744  46.933   8.864  1.00  0.00     0.204 C 
ENDROOT
BRANCH   3   4
HETATM    4  CA  UNL     1     -54.010  47.421  10.100  1.00  0.00     0.283 C 
BRANCH   4   5
HETATM    5  N   UNL     1     -52.575  47.387   9.819  1.00  0.00    -0.065 N 
HETATM    6  H   UNL     1     -52.258  48.321   9.558  1.00  0.00     0.275 HD
HETATM    7  H   UNL     1     -52.394  46.739   9.053  1.00  0.00     0.275 HD
HETATM    8  H   UNL     1     -52.073  47.078  10.652  1.00  0.00     0.275 HD
ENDBRANCH   4   5
BRANCH   4   9
HETATM    9  C   UNL     1     -54.491  48.808  10.556  1.00  0.00     0.045 C 
BRANCH   9  10
HETATM   10  C   UNL     1     -53.404  49.890  10.599  1.00  0.00     0.030 C 
BRANCH  10  11
HETATM   11  C   UNL     1     -53.669  50.973   9.554  1.00  0.00     0.230 C 
BRANCH  11  12
HETATM   12  N   UNL     1     -53.321  50.489   8.222  1.00  0.00    -0.079 N 
HETATM   13  H   UNL     1     -52.369  50.126   8.230  1.00  0.00     0.274 HD
HETATM   14  H   UNL     1     -53.386  51.257   7.554  1.00  0.00     0.274 HD
HETATM   15  H   UNL     1     -53.966  49.747   7.951  1.00  0.00     0.274 HD
ENDBRANCH  11  12
ENDBRANCH  10  11
ENDBRANCH   9  10
ENDBRANCH   4   9
ENDBRANCH   3   4
TORSDOF 6
ENDMDL
MODEL 6
REMARK VINA RESULT:      -3.8      1.645      1.712
REMARK  6 active torsions:
REMARK  status: ('A' for Active; 'I' for Inactive)
REMARK    1  A    between atoms: N_3  and  CA_7 
REMARK    2  A    between atoms: N_4  and  C_8 
REMARK    3  A    between atoms: C_5  and  C_6 
REMARK    4  A    between atoms: C_5  and  CA_7 
REMARK    5  A    between atoms: C_6  and  C_8 
REMARK    6  A    between atoms: CA_7  and  C_9 
ROOT
HETATM    1  O   UNL     1     -53.461  52.271  11.606  1.00  0.00    -0.646 OA
HETATM    2  OXT UNL     1     -53.149  50.110  12.219  1.00  0.00    -0.646 OA
HETATM    3  C   UNL     1     -53.462  50.932  11.368  1.00  0.00     0.204 C 
ENDROOT
BRANCH   3   4
HETATM    4  CA  UNL     1     -53.891  50.609   9.947  1.00  0.00     0.283 C 
BRANCH   4   5
HETATM    5  N   UNL     1     -53.541  51.747   9.098  1.00  0.00    -0.065 N 
HETATM    6  H   UNL     1     -52.844  51.457   8.411  1.00  0.00     0.275 HD
HETATM    7  H   UNL     1     -53.160  52.497   9.674  1.00  0.00     0.275 HD
HETATM    8  H   UNL     1     -54.376  52.080   8.615  1.00  0.00     0.275 HD
ENDBRANCH   4   5
BRANCH   4   9
HETATM    9  C   UNL     1     -53.292  49.287   9.442  1.00  0.00     0.045 C 
BRANCH   9  10
HETATM   10  C   UNL     1     -54.147  48.041   9.714  1.00  0.00     0.030 C 
BRANCH  10  11
HETATM   11  C   UNL     1     -53.281  46.880  10.204  1.00  0.00     0.230 C 
BRANCH  11  12
HETATM   12  N   UNL     1     -52.637  47.226  11.466  1.00  0.00    -0.079 N 
HETATM   13  H   UNL     1     -51.625  47.238  11.340  1.00  0.00     0.274 HD
HETATM   14  H   UNL     1     -52.883  46.533  12.174  1.00  0.00     0.274 HD
HETATM   15  H   UNL     1     -52.953  48.147  11.768  1.00  0.00     0.274 HD
ENDBRANCH  11  12
ENDBRANCH  10  11
ENDBRANCH   9  10
ENDBRANCH   4   9
ENDBRANCH   3   4
TORSDOF 6
ENDMDL
MODEL 7
REMARK VINA RESULT:      -3.8      1.364      2.877
REMARK  6 active torsions:
REMARK  status: ('A' for Active; 'I' for Inactive)
REMARK    1  A    between atoms: N_3  and  CA_7 
REMARK    2  A    between atoms: N_4  and  C_8 
REMARK    3  A    between atoms: C_5  and  C_6 
REMARK    4  A    between atoms: C_5  and  CA_7 
REMARK    5  A    between atoms: C_6  and  C_8 
REMARK    6  A    between atoms: CA_7  and  C_9 
ROOT
HETATM    1  O   UNL     1     -53.823  51.299   9.428  1.00  0.00    -0.646 OA
HETATM    2  OXT UNL     1     -53.472  51.995  11.557  1.00  0.00    -0.646 OA
HETATM    3  C   UNL     1     -53.550  51.084  10.743  1.00  0.00     0.204 C 
ENDROOT
BRANCH   3   4
HETATM    4  CA  UNL     1     -53.362  49.609  11.050  1.00  0.00     0.283 C 
BRANCH   4   5
HETATM    5  N   UNL     1     -53.112  49.472  12.485  1.00  0.00    -0.065 N 
HETATM    6  H   UNL     1     -53.738  48.765  12.873  1.00  0.00     0.275 HD
HETATM    7  H   UNL     1     -53.281  50.366  12.946  1.00  0.00     0.275 HD
HETATM    8  H   UNL     1     -52.144  49.189  12.636  1.00  0.00     0.275 HD
ENDBRANCH   4   5
BRANCH   4   9
HETATM    9  C   UNL     1     -54.548  48.757  10.571  1.00  0.00     0.045 C 
BRANCH   9  10
HETATM   10  C   UNL     1     -54.194  47.671   9.546  1.00  0.00     0.030 C 
BRANCH  10  11
HETATM   11  C   UNL     1     -52.813  47.920   8.940  1.00  0.00     0.230 C 
BRANCH  11  12
HETATM   12  N   UNL     1     -52.928  48.740   7.739  1.00  0.00    -0.079 N 
HETATM   13  H   UNL     1     -53.355  49.635   7.977  1.00  0.00     0.274 HD
HETATM   14  H   UNL     1     -53.510  48.258   7.053  1.00  0.00     0.274 HD
HETATM   15  H   UNL     1     -52.000  48.899   7.346  1.00  0.00     0.274 HD
ENDBRANCH  11  12
ENDBRANCH  10  11
ENDBRANCH   9  10
ENDBRANCH   4   9
ENDBRANCH   3   4
TORSDOF 6
ENDMDL
MODEL 8
REMARK VINA RESULT:      -3.8      2.756      3.121
REMARK  6 active torsions:
REMARK  status: ('A' for Active; 'I' for Inactive)
REMARK    1  A    between atoms: N_3  and  CA_7 
REMARK    2  A    between atoms: N_4  and  C_8 
REMARK    3  A    between atoms: C_5  and  C_6 
REMARK    4  A    between atoms: C_5  and  CA_7 
REMARK    5  A    between atoms: C_6  and  C_8 
REMARK    6  A    between atoms: CA_7  and  C_9 
ROOT
HETATM    1  O   UNL     1     -54.930  47.150   9.442  1.00  0.00    -0.646 OA
HETATM    2  OXT UNL     1     -53.916  47.294   7.419  1.00  0.00    -0.646 OA
HETATM    3  C   UNL     1     -54.096  47.741   8.544  1.00  0.00     0.204 C 
ENDROOT
BRANCH   3   4
HETATM    4  CA  UNL     1     -53.442  48.988   9.113  1.00  0.00     0.283 C 
BRANCH   4   5
HETATM    5  N   UNL     1     -53.351  49.981   8.042  1.00  0.00    -0.065 N 
HETATM    6  H   UNL     1     -53.327  50.917   8.447  1.00  0.00     0.275 HD
HETATM    7  H   UNL     1     -54.161  49.895   7.429  1.00  0.00     0.275 HD
HETATM    8  H   UNL     1     -52.499  49.822   7.503  1.00  0.00     0.275 HD
ENDBRANCH   4   5
BRANCH   4   9
HETATM    9  C   UNL     1     -54.177  49.520  10.352  1.00  0.00     0.045 C 
BRANCH   9  10
HETATM   10  C   UNL     1     -53.289  49.759  11.581  1.00  0.00     0.030 C 
BRANCH  10  11
HETATM   11  C   UNL     1     -53.421  48.612  12.582  1.00  0.00     0.230 C 
BRANCH  11  12
HETATM   12  N   UNL     1     -52.673  48.912  13.798  1.00  0.00    -0.079 N 
HETATM   13  H   UNL     1     -52.771  48.139  14.457  1.00  0.00     0.274 HD
HETATM   14  H   UNL     1     -53.039  49.766  14.220  1.00  0.00     0.274 HD
HETATM   15  H   UNL     1     -51.688  49.040  13.568  1.00  0.00     0.274 HD
ENDBRANCH  11  12
ENDBRANCH  10  11
ENDBRANCH   9  10
ENDBRANCH   4   9
ENDBRANCH   3   4
TORSDOF 6
ENDMDL
MODEL 9
REMARK VINA RESULT:      -3.7      8.208      9.240
REMARK  6 active torsions:
REMARK  status: ('A' for Active; 'I' for Inactive)
REMARK    1  A    between atoms: N_3  and  CA_7 
REMARK    2  A    between atoms: N_4  and  C_8 
REMARK    3  A    between atoms: C_5  and  C_6 
REMARK    4  A    between atoms: C_5  and  CA_7 
REMARK    5  A    between atoms: C_6  and  C_8 
REMARK    6  A    between atoms: CA_7  and  C_9 
ROOT
HETATM    1  O   UNL     1     -49.686  41.509   5.207  1.00  0.00    -0.646 OA
HETATM    2  OXT UNL     1     -51.451  41.605   6.627  1.00  0.00    -0.646 OA
HETATM    3  C   UNL     1     -50.792  42.108   5.727  1.00  0.00     0.204 C 
ENDROOT
BRANCH   3   4
HETATM    4  CA  UNL     1     -51.083  43.440   5.059  1.00  0.00     0.283 C 
BRANCH   4   5
HETATM    5  N   UNL     1     -51.792  43.174   3.807  1.00  0.00    -0.065 N 
HETATM    6  H   UNL     1     -51.841  42.167   3.651  1.00  0.00     0.275 HD
HETATM    7  H   UNL     1     -51.293  43.614   3.034  1.00  0.00     0.275 HD
HETATM    8  H   UNL     1     -52.736  43.557   3.864  1.00  0.00     0.275 HD
ENDBRANCH   4   5
BRANCH   4   9
HETATM    9  C   UNL     1     -51.850  44.400   5.981  1.00  0.00     0.045 C 
BRANCH   9  10
HETATM   10  C   UNL     1     -52.417  45.649   5.290  1.00  0.00     0.030 C 
BRANCH  10  11
HETATM   11  C   UNL     1     -51.350  46.737   5.168  1.00  0.00     0.230 C 
BRANCH  11  12
HETATM   12  N   UNL     1     -51.739  47.717   4.160  1.00  0.00    -0.079 N 
HETATM   13  H   UNL     1     -51.978  47.236   3.293  1.00  0.00     0.274 HD
HETATM   14  H   UNL     1     -50.963  48.356   3.990  1.00  0.00     0.274 HD
HETATM   15  H   UNL     1     -52.547  48.243   4.491  1.00  0.00     0.274 HD
ENDBRANCH  11  12
ENDBRANCH  10  11
ENDBRANCH   9  10
ENDBRANCH   4   9
ENDBRANCH   3   4
TORSDOF 6
ENDMDL
