MODEL 1
REMARK VINA RESULT:      -6.9      0.000      0.000
REMARK  6 active torsions:
REMARK  status: ('A' for Active; 'I' for Inactive)
REMARK    1  A    between atoms: O_1  and  C_11 
REMARK    2  A    between atoms: C_4  and  C_5 
REMARK    3  A    between atoms: C_4  and  C_6 
REMARK    4  A    between atoms: C_5  and  C_7 
REMARK    5  A    between atoms: C_6  and  C_8 
REMARK    6  A    between atoms: C_8  and  C_12 
ROOT
HETATM    1  O   UNL     1      23.693  -7.224  34.504  1.00  0.00    -0.361 OA
HETATM    2  H   UNL     1      23.419  -8.071  34.796  1.00  0.00     0.217 HD
ENDROOT
BRANCH   1   3
HETATM    3  C   UNL     1      23.160  -6.689  33.372  1.00  0.00     0.066 A 
HETATM    4  C   UNL     1      22.372  -5.540  33.447  1.00  0.00     0.043 A 
HETATM    5  C   UNL     1      21.835  -5.007  32.285  1.00  0.00    -0.056 A 
HETATM    6  C   UNL     1      22.068  -5.594  31.050  1.00  0.00     0.007 A 
HETATM    7  C   UNL     1      22.856  -6.741  30.975  1.00  0.00     0.003 A 
HETATM    8  C   UNL     1      23.403  -7.289  32.136  1.00  0.00     0.036 A 
BRANCH   5   9
HETATM    9  C   UNL     1      20.982  -3.767  32.366  1.00  0.00     0.038 C 
BRANCH   9  10
HETATM   10  C   UNL     1      21.623  -2.528  31.729  1.00  0.00     0.005 C 
BRANCH  10  11
HETATM   11  C   UNL     1      21.998  -1.453  32.758  1.00  0.00     0.011 C 
BRANCH  11  12
HETATM   12  C   UNL     1      21.354  -1.704  34.123  1.00  0.00     0.113 C 
BRANCH  12  13
HETATM   13  C   UNL     1      22.351  -1.725  35.261  1.00  0.00     0.172 C 
HETATM   14  O   UNL     1      23.509  -1.104  34.917  1.00  0.00    -0.648 OA
HETATM   15  O   UNL     1      22.157  -2.210  36.366  1.00  0.00    -0.648 OA
ENDBRANCH  12  13
ENDBRANCH  11  12
ENDBRANCH  10  11
ENDBRANCH   9  10
ENDBRANCH   5   9
ENDBRANCH   1   3
TORSDOF 6
ENDMDL
MODEL 2
REMARK VINA RESULT:      -6.8      1.066      4.837
REMARK  6 active torsions:
REMARK  status: ('A' for Active; 'I' for Inactive)
REMARK    1  A    between atoms: O_1  and  C_11 
REMARK    2  A    between atoms: C_4  and  C_5 
REMARK    3  A    between atoms: C_4  and  C_6 
REMARK    4  A    between atoms: C_5  and  C_7 
REMARK    5  A    between atoms: C_6  and  C_8 
REMARK    6  A    between atoms: C_8  and  C_12 
ROOT
HETATM    1  O   UNL     1      22.670  -2.705  35.278  1.00  0.00    -0.361 OA
HETATM    2  H   UNL     1      22.271  -3.204  35.963  1.00  0.00     0.217 HD
ENDROOT
BRANCH   1   3
HETATM    3  C   UNL     1      22.140  -2.727  34.025  1.00  0.00     0.066 A 
HETATM    4  C   UNL     1      21.913  -3.945  33.383  1.00  0.00     0.043 A 
HETATM    5  C   UNL     1      21.373  -3.950  32.106  1.00  0.00    -0.056 A 
HETATM    6  C   UNL     1      21.055  -2.768  31.455  1.00  0.00     0.007 A 
HETATM    7  C   UNL     1      21.281  -1.551  32.096  1.00  0.00     0.003 A 
HETATM    8  C   UNL     1      21.823  -1.530  33.382  1.00  0.00     0.036 A 
BRANCH   5   9
HETATM    9  C   UNL     1      21.130  -5.266  31.412  1.00  0.00     0.038 C 
BRANCH   9  10
HETATM   10  C   UNL     1      22.398  -5.912  30.840  1.00  0.00     0.005 C 
BRANCH  10  11
HETATM   11  C   UNL     1      22.563  -7.379  31.259  1.00  0.00     0.011 C 
BRANCH  11  12
HETATM   12  C   UNL     1      23.499  -7.539  32.459  1.00  0.00     0.113 C 
BRANCH  12  13
HETATM   13  C   UNL     1      22.772  -7.560  33.786  1.00  0.00     0.172 C 
HETATM   14  O   UNL     1      23.626  -7.350  34.821  1.00  0.00    -0.648 OA
HETATM   15  O   UNL     1      21.569  -7.719  33.934  1.00  0.00    -0.648 OA
ENDBRANCH  12  13
ENDBRANCH  11  12
ENDBRANCH  10  11
ENDBRANCH   9  10
ENDBRANCH   5   9
ENDBRANCH   1   3
TORSDOF 6
ENDMDL
MODEL 3
REMARK VINA RESULT:      -6.7      1.875      5.214
REMARK  6 active torsions:
REMARK  status: ('A' for Active; 'I' for Inactive)
REMARK    1  A    between atoms: O_1  and  C_11 
REMARK    2  A    between atoms: C_4  and  C_5 
REMARK    3  A    between atoms: C_4  and  C_6 
REMARK    4  A    between atoms: C_5  and  C_7 
REMARK    5  A    between atoms: C_6  and  C_8 
REMARK    6  A    between atoms: C_8  and  C_12 
ROOT
HETATM    1  O   UNL     1      21.569  -0.495  31.745  1.00  0.00    -0.361 OA
HETATM    2  H   UNL     1      21.748   0.251  32.283  1.00  0.00     0.217 HD
ENDROOT
BRANCH   1   3
HETATM    3  C   UNL     1      21.675  -1.748  32.263  1.00  0.00     0.066 A 
HETATM    4  C   UNL     1      21.395  -2.859  31.466  1.00  0.00     0.043 A 
HETATM    5  C   UNL     1      21.508  -4.130  32.008  1.00  0.00    -0.056 A 
HETATM    6  C   UNL     1      21.894  -4.318  33.327  1.00  0.00     0.007 A 
HETATM    7  C   UNL     1      22.175  -3.208  34.123  1.00  0.00     0.003 A 
HETATM    8  C   UNL     1      22.066  -1.923  33.591  1.00  0.00     0.036 A 
BRANCH   5   9
HETATM    9  C   UNL     1      21.203  -5.331  31.149  1.00  0.00     0.038 C 
BRANCH   9  10
HETATM   10  C   UNL     1      22.449  -6.083  30.667  1.00  0.00     0.005 C 
BRANCH  10  11
HETATM   11  C   UNL     1      22.567  -7.491  31.266  1.00  0.00     0.011 C 
BRANCH  11  12
HETATM   12  C   UNL     1      23.575  -7.550  32.416  1.00  0.00     0.113 C 
BRANCH  12  13
HETATM   13  C   UNL     1      22.923  -7.621  33.780  1.00  0.00     0.172 C 
HETATM   14  O   UNL     1      21.597  -7.897  33.682  1.00  0.00    -0.648 OA
HETATM   15  O   UNL     1      23.497  -7.474  34.850  1.00  0.00    -0.648 OA
ENDBRANCH  12  13
ENDBRANCH  11  12
ENDBRANCH  10  11
ENDBRANCH   9  10
ENDBRANCH   5   9
ENDBRANCH   1   3
TORSDOF 6
ENDMDL
MODEL 4
REMARK VINA RESULT:      -6.7      1.591      2.241
REMARK  6 active torsions:
REMARK  status: ('A' for Active; 'I' for Inactive)
REMARK    1  A    between atoms: O_1  and  C_11 
REMARK    2  A    between atoms: C_4  and  C_5 
REMARK    3  A    between atoms: C_4  and  C_6 
REMARK    4  A    between atoms: C_5  and  C_7 
REMARK    5  A    between atoms: C_6  and  C_8 
REMARK    6  A    between atoms: C_8  and  C_12 
ROOT
HETATM    1  O   UNL     1      21.599  -7.804  29.816  1.00  0.00    -0.361 OA
HETATM    2  H   UNL     1      21.471  -8.683  30.114  1.00  0.00     0.217 HD
ENDROOT
BRANCH   1   3
HETATM    3  C   UNL     1      21.793  -6.803  30.716  1.00  0.00     0.066 A 
HETATM    4  C   UNL     1      21.507  -5.483  30.365  1.00  0.00     0.043 A 
HETATM    5  C   UNL     1      21.711  -4.473  31.293  1.00  0.00    -0.056 A 
HETATM    6  C   UNL     1      22.194  -4.750  32.563  1.00  0.00     0.007 A 
HETATM    7  C   UNL     1      22.480  -6.069  32.914  1.00  0.00     0.003 A 
HETATM    8  C   UNL     1      22.279  -7.096  31.991  1.00  0.00     0.036 A 
BRANCH   5   9
HETATM    9  C   UNL     1      21.404  -3.046  30.914  1.00  0.00     0.038 C 
BRANCH   9  10
HETATM   10  C   UNL     1      20.706  -2.245  32.019  1.00  0.00     0.005 C 
BRANCH  10  11
HETATM   11  C   UNL     1      21.688  -1.461  32.900  1.00  0.00     0.011 C 
BRANCH  11  12
HETATM   12  C   UNL     1      21.357  -1.580  34.389  1.00  0.00     0.113 C 
BRANCH  12  13
HETATM   13  C   UNL     1      22.582  -1.588  35.276  1.00  0.00     0.172 C 
HETATM   14  O   UNL     1      22.318  -2.158  36.481  1.00  0.00    -0.648 OA
HETATM   15  O   UNL     1      23.686  -1.163  34.966  1.00  0.00    -0.648 OA
ENDBRANCH  12  13
ENDBRANCH  11  12
ENDBRANCH  10  11
ENDBRANCH   9  10
ENDBRANCH   5   9
ENDBRANCH   1   3
TORSDOF 6
ENDMDL
MODEL 5
REMARK VINA RESULT:      -6.6      1.290      1.829
REMARK  6 active torsions:
REMARK  status: ('A' for Active; 'I' for Inactive)
REMARK    1  A    between atoms: O_1  and  C_11 
REMARK    2  A    between atoms: C_4  and  C_5 
REMARK    3  A    between atoms: C_4  and  C_6 
REMARK    4  A    between atoms: C_5  and  C_7 
REMARK    5  A    between atoms: C_6  and  C_8 
REMARK    6  A    between atoms: C_8  and  C_12 
ROOT
HETATM    1  O   UNL     1      24.260  -8.220  33.637  1.00  0.00    -0.361 OA
HETATM    2  H   UNL     1      24.450  -8.943  33.072  1.00  0.00     0.217 HD
ENDROOT
BRANCH   1   3
HETATM    3  C   UNL     1      23.133  -7.483  33.444  1.00  0.00     0.066 A 
HETATM    4  C   UNL     1      23.080  -6.546  32.411  1.00  0.00     0.043 A 
HETATM    5  C   UNL     1      21.924  -5.802  32.228  1.00  0.00    -0.056 A 
HETATM    6  C   UNL     1      20.821  -5.972  33.052  1.00  0.00     0.007 A 
HETATM    7  C   UNL     1      20.875  -6.908  34.083  1.00  0.00     0.003 A 
HETATM    8  C   UNL     1      22.031  -7.664  34.280  1.00  0.00     0.036 A 
BRANCH   5   9
HETATM    9  C   UNL     1      21.865  -4.789  31.113  1.00  0.00     0.038 C 
BRANCH   9  10
HETATM   10  C   UNL     1      20.987  -3.571  31.425  1.00  0.00     0.005 C 
BRANCH  10  11
HETATM   11  C   UNL     1      21.767  -2.425  32.085  1.00  0.00     0.011 C 
BRANCH  11  12
HETATM   12  C   UNL     1      21.040  -1.853  33.304  1.00  0.00     0.113 C 
BRANCH  12  13
HETATM   13  C   UNL     1      21.823  -1.998  34.590  1.00  0.00     0.172 C 
HETATM   14  O   UNL     1      22.571  -3.132  34.590  1.00  0.00    -0.648 OA
HETATM   15  O   UNL     1      21.818  -1.202  35.517  1.00  0.00    -0.648 OA
ENDBRANCH  12  13
ENDBRANCH  11  12
ENDBRANCH  10  11
ENDBRANCH   9  10
ENDBRANCH   5   9
ENDBRANCH   1   3
TORSDOF 6
ENDMDL
MODEL 6
REMARK VINA RESULT:      -6.4      4.723      6.259
REMARK  6 active torsions:
REMARK  status: ('A' for Active; 'I' for Inactive)
REMARK    1  A    between atoms: O_1  and  C_11 
REMARK    2  A    between atoms: C_4  and  C_5 
REMARK    3  A    between atoms: C_4  and  C_6 
REMARK    4  A    between atoms: C_5  and  C_7 
REMARK    5  A    between atoms: C_6  and  C_8 
REMARK    6  A    between atoms: C_8  and  C_12 
ROOT
HETATM    1  O   UNL     1      21.596  -0.723  32.723  1.00  0.00    -0.361 OA
HETATM    2  H   UNL     1      22.166  -0.381  33.383  1.00  0.00     0.217 HD
ENDROOT
BRANCH   1   3
HETATM    3  C   UNL     1      21.564  -2.061  32.477  1.00  0.00     0.066 A 
HETATM    4  C   UNL     1      21.147  -2.532  31.232  1.00  0.00     0.043 A 
HETATM    5  C   UNL     1      21.119  -3.899  30.997  1.00  0.00    -0.056 A 
HETATM    6  C   UNL     1      21.498  -4.804  31.976  1.00  0.00     0.007 A 
HETATM    7  C   UNL     1      21.915  -4.333  33.220  1.00  0.00     0.003 A 
HETATM    8  C   UNL     1      21.949  -2.961  33.471  1.00  0.00     0.036 A 
BRANCH   5   9
HETATM    9  C   UNL     1      20.667  -4.409  29.652  1.00  0.00     0.038 C 
BRANCH   9  10
HETATM   10  C   UNL     1      19.152  -4.324  29.432  1.00  0.00     0.005 C 
BRANCH  10  11
HETATM   11  C   UNL     1      18.778  -3.653  28.103  1.00  0.00     0.011 C 
BRANCH  11  12
HETATM   12  C   UNL     1      19.918  -2.802  27.540  1.00  0.00     0.113 C 
BRANCH  12  13
HETATM   13  C   UNL     1      19.511  -1.975  26.340  1.00  0.00     0.172 C 
HETATM   14  O   UNL     1      18.169  -1.773  26.309  1.00  0.00    -0.648 OA
HETATM   15  O   UNL     1      20.274  -1.517  25.502  1.00  0.00    -0.648 OA
ENDBRANCH  12  13
ENDBRANCH  11  12
ENDBRANCH  10  11
ENDBRANCH   9  10
ENDBRANCH   5   9
ENDBRANCH   1   3
TORSDOF 6
ENDMDL
MODEL 7
REMARK VINA RESULT:      -6.4      2.312      6.065
REMARK  6 active torsions:
REMARK  status: ('A' for Active; 'I' for Inactive)
REMARK    1  A    between atoms: O_1  and  C_11 
REMARK    2  A    between atoms: C_4  and  C_5 
REMARK    3  A    between atoms: C_4  and  C_6 
REMARK    4  A    between atoms: C_5  and  C_7 
REMARK    5  A    between atoms: C_6  and  C_8 
REMARK    6  A    between atoms: C_8  and  C_12 
ROOT
HETATM    1  O   UNL     1      22.637  -2.546  35.304  1.00  0.00    -0.361 OA
HETATM    2  H   UNL     1      23.441  -2.954  35.558  1.00  0.00     0.217 HD
ENDROOT
BRANCH   1   3
HETATM    3  C   UNL     1      22.144  -2.736  34.050  1.00  0.00     0.066 A 
HETATM    4  C   UNL     1      22.154  -4.010  33.481  1.00  0.00     0.043 A 
HETATM    5  C   UNL     1      21.649  -4.188  32.202  1.00  0.00    -0.056 A 
HETATM    6  C   UNL     1      21.134  -3.123  31.478  1.00  0.00     0.007 A 
HETATM    7  C   UNL     1      21.123  -1.850  32.047  1.00  0.00     0.003 A 
HETATM    8  C   UNL     1      21.628  -1.656  33.333  1.00  0.00     0.036 A 
BRANCH   5   9
HETATM    9  C   UNL     1      21.661  -5.564  31.586  1.00  0.00     0.038 C 
BRANCH   9  10
HETATM   10  C   UNL     1      22.705  -6.508  32.194  1.00  0.00     0.005 C 
BRANCH  10  11
HETATM   11  C   UNL     1      23.321  -7.462  31.162  1.00  0.00     0.011 C 
BRANCH  11  12
HETATM   12  C   UNL     1      24.434  -8.326  31.760  1.00  0.00     0.113 C 
BRANCH  12  13
HETATM   13  C   UNL     1      25.221  -9.092  30.719  1.00  0.00     0.172 C 
HETATM   14  O   UNL     1      26.505  -9.288  31.115  1.00  0.00    -0.648 OA
HETATM   15  O   UNL     1      24.777  -9.512  29.660  1.00  0.00    -0.648 OA
ENDBRANCH  12  13
ENDBRANCH  11  12
ENDBRANCH  10  11
ENDBRANCH   9  10
ENDBRANCH   5   9
ENDBRANCH   1   3
TORSDOF 6
ENDMDL
MODEL 8
REMARK VINA RESULT:      -6.3      4.676      6.196
REMARK  6 active torsions:
REMARK  status: ('A' for Active; 'I' for Inactive)
REMARK    1  A    between atoms: O_1  and  C_11 
REMARK    2  A    between atoms: C_4  and  C_5 
REMARK    3  A    between atoms: C_4  and  C_6 
REMARK    4  A    between atoms: C_5  and  C_7 
REMARK    5  A    between atoms: C_6  and  C_8 
REMARK    6  A    between atoms: C_8  and  C_12 
ROOT
HETATM    1  O   UNL     1      21.629  -1.138  34.504  1.00  0.00    -0.361 OA
HETATM    2  H   UNL     1      20.818  -0.782  34.810  1.00  0.00     0.217 HD
ENDROOT
BRANCH   1   3
HETATM    3  C   UNL     1      21.628  -2.117  33.560  1.00  0.00     0.066 A 
HETATM    4  C   UNL     1      21.222  -1.830  32.256  1.00  0.00     0.043 A 
HETATM    5  C   UNL     1      21.226  -2.839  31.305  1.00  0.00    -0.056 A 
HETATM    6  C   UNL     1      21.627  -4.127  31.625  1.00  0.00     0.007 A 
HETATM    7  C   UNL     1      22.034  -4.414  32.927  1.00  0.00     0.003 A 
HETATM    8  C   UNL     1      22.035  -3.409  33.895  1.00  0.00     0.036 A 
BRANCH   5   9
HETATM    9  C   UNL     1      20.785  -2.529  29.897  1.00  0.00     0.038 C 
BRANCH   9  10
HETATM   10  C   UNL     1      19.276  -2.676  29.671  1.00  0.00     0.005 C 
BRANCH  10  11
HETATM   11  C   UNL     1      18.934  -3.355  28.338  1.00  0.00     0.011 C 
BRANCH  11  12
HETATM   12  C   UNL     1      19.975  -3.067  27.254  1.00  0.00     0.113 C 
BRANCH  12  13
HETATM   13  C   UNL     1      19.509  -2.059  26.228  1.00  0.00     0.172 C 
HETATM   14  O   UNL     1      18.176  -1.822  26.336  1.00  0.00    -0.648 OA
HETATM   15  O   UNL     1      20.222  -1.498  25.408  1.00  0.00    -0.648 OA
ENDBRANCH  12  13
ENDBRANCH  11  12
ENDBRANCH  10  11
ENDBRANCH   9  10
ENDBRANCH   5   9
ENDBRANCH   1   3
TORSDOF 6
ENDMDL
MODEL 9
REMARK VINA RESULT:      -6.3      3.679      5.478
REMARK  6 active torsions:
REMARK  status: ('A' for Active; 'I' for Inactive)
REMARK    1  A    between atoms: O_1  and  C_11 
REMARK    2  A    between atoms: C_4  and  C_5 
REMARK    3  A    between atoms: C_4  and  C_6 
REMARK    4  A    between atoms: C_5  and  C_7 
REMARK    5  A    between atoms: C_6  and  C_8 
REMARK    6  A    between atoms: C_8  and  C_12 
ROOT
HETATM    1  O   UNL     1      22.506  -2.773  35.453  1.00  0.00    -0.361 OA
HETATM    2  H   UNL     1      23.403  -2.609  35.669  1.00  0.00     0.217 HD
ENDROOT
BRANCH   1   3
HETATM    3  C   UNL     1      22.101  -2.741  34.155  1.00  0.00     0.066 A 
HETATM    4  C   UNL     1      22.053  -3.920  33.410  1.00  0.00     0.043 A 
HETATM    5  C   UNL     1      21.638  -3.871  32.087  1.00  0.00    -0.056 A 
HETATM    6  C   UNL     1      21.272  -2.672  31.492  1.00  0.00     0.007 A 
HETATM    7  C   UNL     1      21.320  -1.495  32.237  1.00  0.00     0.003 A 
HETATM    8  C   UNL     1      21.735  -1.529  33.570  1.00  0.00     0.036 A 
BRANCH   5   9
HETATM    9  C   UNL     1      21.587  -5.143  31.280  1.00  0.00     0.038 C 
BRANCH   9  10
HETATM   10  C   UNL     1      21.525  -4.917  29.765  1.00  0.00     0.005 C 
BRANCH  10  11
HETATM   11  C   UNL     1      20.239  -5.464  29.131  1.00  0.00     0.011 C 
BRANCH  11  12
HETATM   12  C   UNL     1      19.110  -4.432  29.121  1.00  0.00     0.113 C 
BRANCH  12  13
HETATM   13  C   UNL     1      19.357  -3.283  28.169  1.00  0.00     0.172 C 
HETATM   14  O   UNL     1      19.015  -2.093  28.728  1.00  0.00    -0.648 OA
HETATM   15  O   UNL     1      19.826  -3.381  27.044  1.00  0.00    -0.648 OA
ENDBRANCH  12  13
ENDBRANCH  11  12
ENDBRANCH  10  11
ENDBRANCH   9  10
ENDBRANCH   5   9
ENDBRANCH   1   3
TORSDOF 6
ENDMDL
