MODEL 1
REMARK VINA RESULT:      -7.1      0.000      0.000
REMARK  6 active torsions:
REMARK  status: ('A' for Active; 'I' for Inactive)
REMARK    1  A    between atoms: O_1  and  C_11 
REMARK    2  A    between atoms: C_4  and  C_5 
REMARK    3  A    between atoms: C_4  and  C_6 
REMARK    4  A    between atoms: C_5  and  C_7 
REMARK    5  A    between atoms: C_6  and  C_8 
REMARK    6  A    between atoms: C_8  and  C_12 
ROOT
HETATM    1  O   UNL     1      18.119   6.034   9.262  1.00  0.00    -0.361 OA
HETATM    2  H   UNL     1      17.834   5.593   8.487  1.00  0.00     0.217 HD
ENDROOT
BRANCH   1   3
HETATM    3  C   UNL     1      17.384   5.950  10.403  1.00  0.00     0.066 A 
HETATM    4  C   UNL     1      16.025   6.263  10.383  1.00  0.00     0.043 A 
HETATM    5  C   UNL     1      15.289   6.173  11.555  1.00  0.00    -0.056 A 
HETATM    6  C   UNL     1      15.879   5.776  12.746  1.00  0.00     0.007 A 
HETATM    7  C   UNL     1      17.237   5.462  12.766  1.00  0.00     0.003 A 
HETATM    8  C   UNL     1      17.990   5.549  11.594  1.00  0.00     0.036 A 
BRANCH   5   9
HETATM    9  C   UNL     1      13.820   6.513  11.535  1.00  0.00     0.038 C 
BRANCH   9  10
HETATM   10  C   UNL     1      12.897   5.290  11.591  1.00  0.00     0.005 C 
BRANCH  10  11
HETATM   11  C   UNL     1      12.116   5.070  10.288  1.00  0.00     0.011 C 
BRANCH  11  12
HETATM   12  C   UNL     1      12.318   6.211   9.289  1.00  0.00     0.113 C 
BRANCH  12  13
HETATM   13  C   UNL     1      12.789   5.741   7.931  1.00  0.00     0.172 C 
HETATM   14  O   UNL     1      12.542   4.417   7.751  1.00  0.00    -0.648 OA
HETATM   15  O   UNL     1      13.309   6.444   7.076  1.00  0.00    -0.648 OA
ENDBRANCH  12  13
ENDBRANCH  11  12
ENDBRANCH  10  11
ENDBRANCH   9  10
ENDBRANCH   5   9
ENDBRANCH   1   3
TORSDOF 6
ENDMDL
MODEL 2
REMARK VINA RESULT:      -7.0      1.845      5.201
REMARK  6 active torsions:
REMARK  status: ('A' for Active; 'I' for Inactive)
REMARK    1  A    between atoms: O_1  and  C_11 
REMARK    2  A    between atoms: C_4  and  C_5 
REMARK    3  A    between atoms: C_4  and  C_6 
REMARK    4  A    between atoms: C_5  and  C_7 
REMARK    5  A    between atoms: C_6  and  C_8 
REMARK    6  A    between atoms: C_8  and  C_12 
ROOT
HETATM    1  O   UNL     1      10.984   4.880  11.132  1.00  0.00    -0.361 OA
HETATM    2  H   UNL     1      10.369   5.472  11.519  1.00  0.00     0.217 HD
ENDROOT
BRANCH   1   3
HETATM    3  C   UNL     1      12.196   5.335  10.715  1.00  0.00     0.066 A 
HETATM    4  C   UNL     1      13.165   5.698  11.651  1.00  0.00     0.043 A 
HETATM    5  C   UNL     1      14.396   6.161  11.210  1.00  0.00    -0.056 A 
HETATM    6  C   UNL     1      14.681   6.269   9.857  1.00  0.00     0.007 A 
HETATM    7  C   UNL     1      13.713   5.906   8.922  1.00  0.00     0.003 A 
HETATM    8  C   UNL     1      12.470   5.438   9.351  1.00  0.00     0.036 A 
BRANCH   5   9
HETATM    9  C   UNL     1      15.443   6.556  12.220  1.00  0.00     0.038 C 
BRANCH   9  10
HETATM   10  C   UNL     1      16.453   5.445  12.536  1.00  0.00     0.005 C 
BRANCH  10  11
HETATM   11  C   UNL     1      17.907   5.935  12.513  1.00  0.00     0.011 C 
BRANCH  11  12
HETATM   12  C   UNL     1      18.669   5.439  11.282  1.00  0.00     0.113 C 
BRANCH  12  13
HETATM   13  C   UNL     1      18.316   6.190  10.017  1.00  0.00     0.172 C 
HETATM   14  O   UNL     1      18.282   7.531  10.230  1.00  0.00    -0.648 OA
HETATM   15  O   UNL     1      18.105   5.682   8.925  1.00  0.00    -0.648 OA
ENDBRANCH  12  13
ENDBRANCH  11  12
ENDBRANCH  10  11
ENDBRANCH   9  10
ENDBRANCH   5   9
ENDBRANCH   1   3
TORSDOF 6
ENDMDL
MODEL 3
REMARK VINA RESULT:      -6.8      3.383      4.297
REMARK  6 active torsions:
REMARK  status: ('A' for Active; 'I' for Inactive)
REMARK    1  A    between atoms: O_1  and  C_11 
REMARK    2  A    between atoms: C_4  and  C_5 
REMARK    3  A    between atoms: C_4  and  C_6 
REMARK    4  A    between atoms: C_5  and  C_7 
REMARK    5  A    between atoms: C_6  and  C_8 
REMARK    6  A    between atoms: C_8  and  C_12 
ROOT
HETATM    1  O   UNL     1      11.982   7.019  16.942  1.00  0.00    -0.361 OA
HETATM    2  H   UNL     1      11.733   6.442  17.637  1.00  0.00     0.217 HD
ENDROOT
BRANCH   1   3
HETATM    3  C   UNL     1      12.575   6.521  15.824  1.00  0.00     0.066 A 
HETATM    4  C   UNL     1      11.986   6.718  14.574  1.00  0.00     0.043 A 
HETATM    5  C   UNL     1      12.602   6.204  13.443  1.00  0.00    -0.056 A 
HETATM    6  C   UNL     1      13.792   5.498  13.531  1.00  0.00     0.007 A 
HETATM    7  C   UNL     1      14.381   5.302  14.780  1.00  0.00     0.003 A 
HETATM    8  C   UNL     1      13.773   5.814  15.926  1.00  0.00     0.036 A 
BRANCH   5   9
HETATM    9  C   UNL     1      11.965   6.414  12.093  1.00  0.00     0.038 C 
BRANCH   9  10
HETATM   10  C   UNL     1      12.293   5.318  11.073  1.00  0.00     0.005 C 
BRANCH  10  11
HETATM   11  C   UNL     1      13.095   5.839   9.873  1.00  0.00     0.011 C 
BRANCH  11  12
HETATM   12  C   UNL     1      12.196   6.421   8.780  1.00  0.00     0.113 C 
BRANCH  12  13
HETATM   13  C   UNL     1      12.325   5.705   7.454  1.00  0.00     0.172 C 
HETATM   14  O   UNL     1      12.836   4.456   7.613  1.00  0.00    -0.648 OA
HETATM   15  O   UNL     1      11.999   6.159   6.367  1.00  0.00    -0.648 OA
ENDBRANCH  12  13
ENDBRANCH  11  12
ENDBRANCH  10  11
ENDBRANCH   9  10
ENDBRANCH   5   9
ENDBRANCH   1   3
TORSDOF 6
ENDMDL
MODEL 4
REMARK VINA RESULT:      -6.7      0.965      1.392
REMARK  6 active torsions:
REMARK  status: ('A' for Active; 'I' for Inactive)
REMARK    1  A    between atoms: O_1  and  C_11 
REMARK    2  A    between atoms: C_4  and  C_5 
REMARK    3  A    between atoms: C_4  and  C_6 
REMARK    4  A    between atoms: C_5  and  C_7 
REMARK    5  A    between atoms: C_6  and  C_8 
REMARK    6  A    between atoms: C_8  and  C_12 
ROOT
HETATM    1  O   UNL     1      19.362   5.090  11.089  1.00  0.00    -0.361 OA
HETATM    2  H   UNL     1      19.408   4.888  10.176  1.00  0.00     0.217 HD
ENDROOT
BRANCH   1   3
HETATM    3  C   UNL     1      18.159   5.341  11.671  1.00  0.00     0.066 A 
HETATM    4  C   UNL     1      17.069   5.721  10.886  1.00  0.00     0.043 A 
HETATM    5  C   UNL     1      15.849   5.974  11.494  1.00  0.00    -0.056 A 
HETATM    6  C   UNL     1      15.691   5.856  12.867  1.00  0.00     0.007 A 
HETATM    7  C   UNL     1      16.779   5.476  13.651  1.00  0.00     0.003 A 
HETATM    8  C   UNL     1      18.014   5.217  13.053  1.00  0.00     0.036 A 
BRANCH   5   9
HETATM    9  C   UNL     1      14.672   6.387  10.647  1.00  0.00     0.038 C 
BRANCH   9  10
HETATM   10  C   UNL     1      13.312   5.998  11.240  1.00  0.00     0.005 C 
BRANCH  10  11
HETATM   11  C   UNL     1      12.311   5.523  10.178  1.00  0.00     0.011 C 
BRANCH  11  12
HETATM   12  C   UNL     1      12.432   6.309   8.871  1.00  0.00     0.113 C 
BRANCH  12  13
HETATM   13  C   UNL     1      12.385   5.432   7.639  1.00  0.00     0.172 C 
HETATM   14  O   UNL     1      12.071   6.152   6.530  1.00  0.00    -0.648 OA
HETATM   15  O   UNL     1      12.617   4.232   7.612  1.00  0.00    -0.648 OA
ENDBRANCH  12  13
ENDBRANCH  11  12
ENDBRANCH  10  11
ENDBRANCH   9  10
ENDBRANCH   5   9
ENDBRANCH   1   3
TORSDOF 6
ENDMDL
MODEL 5
REMARK VINA RESULT:      -6.6      1.718      2.338
REMARK  6 active torsions:
REMARK  status: ('A' for Active; 'I' for Inactive)
REMARK    1  A    between atoms: O_1  and  C_11 
REMARK    2  A    between atoms: C_4  and  C_5 
REMARK    3  A    between atoms: C_4  and  C_6 
REMARK    4  A    between atoms: C_5  and  C_7 
REMARK    5  A    between atoms: C_6  and  C_8 
REMARK    6  A    between atoms: C_8  and  C_12 
ROOT
HETATM    1  O   UNL     1      16.672   5.368  15.083  1.00  0.00    -0.361 OA
HETATM    2  H   UNL     1      16.172   4.659  15.439  1.00  0.00     0.217 HD
ENDROOT
BRANCH   1   3
HETATM    3  C   UNL     1      16.786   5.510  13.735  1.00  0.00     0.066 A 
HETATM    4  C   UNL     1      15.666   5.834  12.969  1.00  0.00     0.043 A 
HETATM    5  C   UNL     1      15.799   5.975  11.596  1.00  0.00    -0.056 A 
HETATM    6  C   UNL     1      17.024   5.800  10.971  1.00  0.00     0.007 A 
HETATM    7  C   UNL     1      18.144   5.477  11.736  1.00  0.00     0.003 A 
HETATM    8  C   UNL     1      18.026   5.332  13.119  1.00  0.00     0.036 A 
BRANCH   5   9
HETATM    9  C   UNL     1      14.588   6.323  10.767  1.00  0.00     0.038 C 
BRANCH   9  10
HETATM   10  C   UNL     1      13.265   5.827  11.361  1.00  0.00     0.005 C 
BRANCH  10  11
HETATM   11  C   UNL     1      12.259   5.381  10.291  1.00  0.00     0.011 C 
BRANCH  11  12
HETATM   12  C   UNL     1      12.322   6.252   9.035  1.00  0.00     0.113 C 
BRANCH  12  13
HETATM   13  C   UNL     1      12.658   5.473   7.782  1.00  0.00     0.172 C 
HETATM   14  O   UNL     1      13.150   6.285   6.810  1.00  0.00    -0.648 OA
HETATM   15  O   UNL     1      12.535   4.265   7.643  1.00  0.00    -0.648 OA
ENDBRANCH  12  13
ENDBRANCH  11  12
ENDBRANCH  10  11
ENDBRANCH   9  10
ENDBRANCH   5   9
ENDBRANCH   1   3
TORSDOF 6
ENDMDL
MODEL 6
REMARK VINA RESULT:      -6.6      1.082      4.654
REMARK  6 active torsions:
REMARK  status: ('A' for Active; 'I' for Inactive)
REMARK    1  A    between atoms: O_1  and  C_11 
REMARK    2  A    between atoms: C_4  and  C_5 
REMARK    3  A    between atoms: C_4  and  C_6 
REMARK    4  A    between atoms: C_5  and  C_7 
REMARK    5  A    between atoms: C_6  and  C_8 
REMARK    6  A    between atoms: C_8  and  C_12 
ROOT
HETATM    1  O   UNL     1      13.603   5.758   7.791  1.00  0.00    -0.361 OA
HETATM    2  H   UNL     1      14.471   5.759   7.441  1.00  0.00     0.217 HD
ENDROOT
BRANCH   1   3
HETATM    3  C   UNL     1      13.413   5.784   9.138  1.00  0.00     0.066 A 
HETATM    4  C   UNL     1      14.453   6.172   9.983  1.00  0.00     0.043 A 
HETATM    5  C   UNL     1      14.244   6.193  11.354  1.00  0.00    -0.056 A 
HETATM    6  C   UNL     1      13.021   5.835  11.900  1.00  0.00     0.007 A 
HETATM    7  C   UNL     1      11.981   5.447  11.056  1.00  0.00     0.003 A 
HETATM    8  C   UNL     1      12.177   5.422   9.675  1.00  0.00     0.036 A 
BRANCH   5   9
HETATM    9  C   UNL     1      15.369   6.611  12.267  1.00  0.00     0.038 C 
BRANCH   9  10
HETATM   10  C   UNL     1      16.306   5.464  12.664  1.00  0.00     0.005 C 
BRANCH  10  11
HETATM   11  C   UNL     1      17.581   5.412  11.811  1.00  0.00     0.011 C 
BRANCH  11  12
HETATM   12  C   UNL     1      18.058   6.804  11.392  1.00  0.00     0.113 C 
BRANCH  12  13
HETATM   13  C   UNL     1      17.925   7.061   9.907  1.00  0.00     0.172 C 
HETATM   14  O   UNL     1      18.536   6.090   9.179  1.00  0.00    -0.648 OA
HETATM   15  O   UNL     1      17.331   8.001   9.399  1.00  0.00    -0.648 OA
ENDBRANCH  12  13
ENDBRANCH  11  12
ENDBRANCH  10  11
ENDBRANCH   9  10
ENDBRANCH   5   9
ENDBRANCH   1   3
TORSDOF 6
ENDMDL
MODEL 7
REMARK VINA RESULT:      -6.5      3.618      5.551
REMARK  6 active torsions:
REMARK  status: ('A' for Active; 'I' for Inactive)
REMARK    1  A    between atoms: O_1  and  C_11 
REMARK    2  A    between atoms: C_4  and  C_5 
REMARK    3  A    between atoms: C_4  and  C_6 
REMARK    4  A    between atoms: C_5  and  C_7 
REMARK    5  A    between atoms: C_6  and  C_8 
REMARK    6  A    between atoms: C_8  and  C_12 
ROOT
HETATM    1  O   UNL     1      10.972   4.829  11.054  1.00  0.00    -0.361 OA
HETATM    2  H   UNL     1      10.318   4.763  10.387  1.00  0.00     0.217 HD
ENDROOT
BRANCH   1   3
HETATM    3  C   UNL     1      12.215   5.289  10.746  1.00  0.00     0.066 A 
HETATM    4  C   UNL     1      13.158   5.483  11.756  1.00  0.00     0.043 A 
HETATM    5  C   UNL     1      14.420   5.953  11.426  1.00  0.00    -0.056 A 
HETATM    6  C   UNL     1      14.762   6.235  10.112  1.00  0.00     0.007 A 
HETATM    7  C   UNL     1      13.819   6.041   9.103  1.00  0.00     0.003 A 
HETATM    8  C   UNL     1      12.545   5.567   9.420  1.00  0.00     0.036 A 
BRANCH   5   9
HETATM    9  C   UNL     1      15.440   6.164  12.517  1.00  0.00     0.038 C 
BRANCH   9  10
HETATM   10  C   UNL     1      15.122   5.417  13.818  1.00  0.00     0.005 C 
BRANCH  10  11
HETATM   11  C   UNL     1      14.817   6.360  14.989  1.00  0.00     0.011 C 
BRANCH  11  12
HETATM   12  C   UNL     1      13.727   7.379  14.648  1.00  0.00     0.113 C 
BRANCH  12  13
HETATM   13  C   UNL     1      12.367   7.006  15.193  1.00  0.00     0.172 C 
HETATM   14  O   UNL     1      11.421   7.018  14.218  1.00  0.00    -0.648 OA
HETATM   15  O   UNL     1      12.125   6.704  16.353  1.00  0.00    -0.648 OA
ENDBRANCH  12  13
ENDBRANCH  11  12
ENDBRANCH  10  11
ENDBRANCH   9  10
ENDBRANCH   5   9
ENDBRANCH   1   3
TORSDOF 6
ENDMDL
MODEL 8
REMARK VINA RESULT:      -6.4      3.106      5.777
REMARK  6 active torsions:
REMARK  status: ('A' for Active; 'I' for Inactive)
REMARK    1  A    between atoms: O_1  and  C_11 
REMARK    2  A    between atoms: C_4  and  C_5 
REMARK    3  A    between atoms: C_4  and  C_6 
REMARK    4  A    between atoms: C_5  and  C_7 
REMARK    5  A    between atoms: C_6  and  C_8 
REMARK    6  A    between atoms: C_8  and  C_12 
ROOT
HETATM    1  O   UNL     1      10.962   4.808  11.245  1.00  0.00    -0.361 OA
HETATM    2  H   UNL     1      10.929   4.490  12.126  1.00  0.00     0.217 HD
ENDROOT
BRANCH   1   3
HETATM    3  C   UNL     1      12.136   5.266  10.732  1.00  0.00     0.066 A 
HETATM    4  C   UNL     1      13.156   5.685  11.587  1.00  0.00     0.043 A 
HETATM    5  C   UNL     1      14.346   6.150  11.048  1.00  0.00    -0.056 A 
HETATM    6  C   UNL     1      14.541   6.206   9.676  1.00  0.00     0.007 A 
HETATM    7  C   UNL     1      13.522   5.787   8.822  1.00  0.00     0.003 A 
HETATM    8  C   UNL     1      12.319   5.316   9.349  1.00  0.00     0.036 A 
BRANCH   5   9
HETATM    9  C   UNL     1      15.448   6.604  11.971  1.00  0.00     0.038 C 
BRANCH   9  10
HETATM   10  C   UNL     1      16.656   5.660  12.010  1.00  0.00     0.005 C 
BRANCH  10  11
HETATM   11  C   UNL     1      17.087   5.300  13.439  1.00  0.00     0.011 C 
BRANCH  11  12
HETATM   12  C   UNL     1      15.974   5.543  14.461  1.00  0.00     0.113 C 
BRANCH  12  13
HETATM   13  C   UNL     1      15.313   4.269  14.939  1.00  0.00     0.172 C 
HETATM   14  O   UNL     1      15.990   3.719  15.979  1.00  0.00    -0.648 OA
HETATM   15  O   UNL     1      14.287   3.786  14.480  1.00  0.00    -0.648 OA
ENDBRANCH  12  13
ENDBRANCH  11  12
ENDBRANCH  10  11
ENDBRANCH   9  10
ENDBRANCH   5   9
ENDBRANCH   1   3
TORSDOF 6
ENDMDL
MODEL 9
REMARK VINA RESULT:      -6.3      2.398      6.046
REMARK  6 active torsions:
REMARK  status: ('A' for Active; 'I' for Inactive)
REMARK    1  A    between atoms: O_1  and  C_11 
REMARK    2  A    between atoms: C_4  and  C_5 
REMARK    3  A    between atoms: C_4  and  C_6 
REMARK    4  A    between atoms: C_5  and  C_7 
REMARK    5  A    between atoms: C_6  and  C_8 
REMARK    6  A    between atoms: C_8  and  C_12 
ROOT
HETATM    1  O   UNL     1      11.109   4.858  11.598  1.00  0.00    -0.361 OA
HETATM    2  H   UNL     1      10.714   5.392  12.259  1.00  0.00     0.217 HD
ENDROOT
BRANCH   1   3
HETATM    3  C   UNL     1      12.217   5.296  10.941  1.00  0.00     0.066 A 
HETATM    4  C   UNL     1      13.352   5.672  11.661  1.00  0.00     0.043 A 
HETATM    5  C   UNL     1      14.473   6.117  10.977  1.00  0.00    -0.056 A 
HETATM    6  C   UNL     1      14.487   6.195   9.592  1.00  0.00     0.007 A 
HETATM    7  C   UNL     1      13.353   5.819   8.874  1.00  0.00     0.003 A 
HETATM    8  C   UNL     1      12.217   5.369   9.548  1.00  0.00     0.036 A 
BRANCH   5   9
HETATM    9  C   UNL     1      15.699   6.525  11.753  1.00  0.00     0.038 C 
BRANCH   9  10
HETATM   10  C   UNL     1      16.952   6.706  10.888  1.00  0.00     0.005 C 
BRANCH  10  11
HETATM   11  C   UNL     1      18.116   5.807  11.326  1.00  0.00     0.011 C 
BRANCH  11  12
HETATM   12  C   UNL     1      17.972   5.332  12.773  1.00  0.00     0.113 C 
BRANCH  12  13
HETATM   13  C   UNL     1      19.047   4.353  13.192  1.00  0.00     0.172 C 
HETATM   14  O   UNL     1      18.799   3.842  14.425  1.00  0.00    -0.648 OA
HETATM   15  O   UNL     1      20.013   4.028  12.517  1.00  0.00    -0.648 OA
ENDBRANCH  12  13
ENDBRANCH  11  12
ENDBRANCH  10  11
ENDBRANCH   9  10
ENDBRANCH   5   9
ENDBRANCH   1   3
TORSDOF 6
ENDMDL
