MODEL 1
REMARK VINA RESULT:      -7.0      0.000      0.000
REMARK  6 active torsions:
REMARK  status: ('A' for Active; 'I' for Inactive)
REMARK    1  A    between atoms: O_1  and  C_11 
REMARK    2  A    between atoms: C_4  and  C_5 
REMARK    3  A    between atoms: C_4  and  C_6 
REMARK    4  A    between atoms: C_5  and  C_7 
REMARK    5  A    between atoms: C_6  and  C_8 
REMARK    6  A    between atoms: C_8  and  C_12 
ROOT
HETATM    1  O   UNL     1      23.871  -7.381  34.446  1.00  0.00    -0.361 OA
HETATM    2  H   UNL     1      23.999  -8.306  34.515  1.00  0.00     0.217 HD
ENDROOT
BRANCH   1   3
HETATM    3  C   UNL     1      23.283  -6.856  33.338  1.00  0.00     0.066 A 
HETATM    4  C   UNL     1      22.491  -5.712  33.443  1.00  0.00     0.043 A 
HETATM    5  C   UNL     1      21.897  -5.189  32.303  1.00  0.00    -0.056 A 
HETATM    6  C   UNL     1      22.077  -5.782  31.062  1.00  0.00     0.007 A 
HETATM    7  C   UNL     1      22.869  -6.924  30.958  1.00  0.00     0.003 A 
HETATM    8  C   UNL     1      23.473  -7.461  32.095  1.00  0.00     0.036 A 
BRANCH   5   9
HETATM    9  C   UNL     1      21.040  -3.954  32.416  1.00  0.00     0.038 C 
BRANCH   9  10
HETATM   10  C   UNL     1      21.619  -2.727  31.703  1.00  0.00     0.005 C 
BRANCH  10  11
HETATM   11  C   UNL     1      21.865  -1.545  32.650  1.00  0.00     0.011 C 
BRANCH  11  12
HETATM   12  C   UNL     1      21.450  -1.857  34.090  1.00  0.00     0.113 C 
BRANCH  12  13
HETATM   13  C   UNL     1      22.573  -1.680  35.088  1.00  0.00     0.172 C 
HETATM   14  O   UNL     1      22.273  -2.260  36.279  1.00  0.00    -0.648 OA
HETATM   15  O   UNL     1      23.633  -1.111  34.871  1.00  0.00    -0.648 OA
ENDBRANCH  12  13
ENDBRANCH  11  12
ENDBRANCH  10  11
ENDBRANCH   9  10
ENDBRANCH   5   9
ENDBRANCH   1   3
TORSDOF 6
ENDMDL
MODEL 2
REMARK VINA RESULT:      -6.8      1.129      4.881
REMARK  6 active torsions:
REMARK  status: ('A' for Active; 'I' for Inactive)
REMARK    1  A    between atoms: O_1  and  C_11 
REMARK    2  A    between atoms: C_4  and  C_5 
REMARK    3  A    between atoms: C_4  and  C_6 
REMARK    4  A    between atoms: C_5  and  C_7 
REMARK    5  A    between atoms: C_6  and  C_8 
REMARK    6  A    between atoms: C_8  and  C_12 
ROOT
HETATM    1  O   UNL     1      22.712  -2.810  35.089  1.00  0.00    -0.361 OA
HETATM    2  H   UNL     1      23.630  -2.639  35.163  1.00  0.00     0.217 HD
ENDROOT
BRANCH   1   3
HETATM    3  C   UNL     1      22.121  -2.837  33.864  1.00  0.00     0.066 A 
HETATM    4  C   UNL     1      21.940  -4.052  33.202  1.00  0.00     0.043 A 
HETATM    5  C   UNL     1      21.337  -4.063  31.954  1.00  0.00    -0.056 A 
HETATM    6  C   UNL     1      20.910  -2.889  31.351  1.00  0.00     0.007 A 
HETATM    7  C   UNL     1      21.090  -1.675  32.013  1.00  0.00     0.003 A 
HETATM    8  C   UNL     1      21.695  -1.648  33.270  1.00  0.00     0.036 A 
BRANCH   5   9
HETATM    9  C   UNL     1      21.143  -5.375  31.237  1.00  0.00     0.038 C 
BRANCH   9  10
HETATM   10  C   UNL     1      22.447  -6.011  30.741  1.00  0.00     0.005 C 
BRANCH  10  11
HETATM   11  C   UNL     1      22.639  -7.449  31.242  1.00  0.00     0.011 C 
BRANCH  11  12
HETATM   12  C   UNL     1      23.533  -7.519  32.482  1.00  0.00     0.113 C 
BRANCH  12  13
HETATM   13  C   UNL     1      22.755  -7.581  33.778  1.00  0.00     0.172 C 
HETATM   14  O   UNL     1      23.568  -7.414  34.853  1.00  0.00    -0.648 OA
HETATM   15  O   UNL     1      21.546  -7.737  33.873  1.00  0.00    -0.648 OA
ENDBRANCH  12  13
ENDBRANCH  11  12
ENDBRANCH  10  11
ENDBRANCH   9  10
ENDBRANCH   5   9
ENDBRANCH   1   3
TORSDOF 6
ENDMDL
MODEL 3
REMARK VINA RESULT:      -6.7      1.354      2.084
REMARK  6 active torsions:
REMARK  status: ('A' for Active; 'I' for Inactive)
REMARK    1  A    between atoms: O_1  and  C_11 
REMARK    2  A    between atoms: C_4  and  C_5 
REMARK    3  A    between atoms: C_4  and  C_6 
REMARK    4  A    between atoms: C_5  and  C_7 
REMARK    5  A    between atoms: C_6  and  C_8 
REMARK    6  A    between atoms: C_8  and  C_12 
ROOT
HETATM    1  O   UNL     1      22.916  -7.712  30.150  1.00  0.00    -0.361 OA
HETATM    2  H   UNL     1      23.758  -7.710  29.739  1.00  0.00     0.217 HD
ENDROOT
BRANCH   1   3
HETATM    3  C   UNL     1      22.605  -6.757  31.068  1.00  0.00     0.066 A 
HETATM    4  C   UNL     1      22.143  -5.509  30.648  1.00  0.00     0.043 A 
HETATM    5  C   UNL     1      21.830  -4.546  31.596  1.00  0.00    -0.056 A 
HETATM    6  C   UNL     1      21.968  -4.801  32.952  1.00  0.00     0.007 A 
HETATM    7  C   UNL     1      22.428  -6.048  33.371  1.00  0.00     0.003 A 
HETATM    8  C   UNL     1      22.747  -7.027  32.429  1.00  0.00     0.036 A 
BRANCH   5   9
HETATM    9  C   UNL     1      21.333  -3.197  31.143  1.00  0.00     0.038 C 
BRANCH   9  10
HETATM   10  C   UNL     1      20.668  -2.375  32.253  1.00  0.00     0.005 C 
BRANCH  10  11
HETATM   11  C   UNL     1      21.667  -1.522  33.046  1.00  0.00     0.011 C 
BRANCH  11  12
HETATM   12  C   UNL     1      21.296  -1.419  34.528  1.00  0.00     0.113 C 
BRANCH  12  13
HETATM   13  C   UNL     1      22.476  -1.617  35.454  1.00  0.00     0.172 C 
HETATM   14  O   UNL     1      23.625  -1.150  34.901  1.00  0.00    -0.648 OA
HETATM   15  O   UNL     1      22.425  -2.110  36.572  1.00  0.00    -0.648 OA
ENDBRANCH  12  13
ENDBRANCH  11  12
ENDBRANCH  10  11
ENDBRANCH   9  10
ENDBRANCH   5   9
ENDBRANCH   1   3
TORSDOF 6
ENDMDL
MODEL 4
REMARK VINA RESULT:      -6.7      1.939      5.253
REMARK  6 active torsions:
REMARK  status: ('A' for Active; 'I' for Inactive)
REMARK    1  A    between atoms: O_1  and  C_11 
REMARK    2  A    between atoms: C_4  and  C_5 
REMARK    3  A    between atoms: C_4  and  C_6 
REMARK    4  A    between atoms: C_5  and  C_7 
REMARK    5  A    between atoms: C_6  and  C_8 
REMARK    6  A    between atoms: C_8  and  C_12 
ROOT
HETATM    1  O   UNL     1      21.634  -0.418  31.558  1.00  0.00    -0.361 OA
HETATM    2  H   UNL     1      22.355   0.175  31.635  1.00  0.00     0.217 HD
ENDROOT
BRANCH   1   3
HETATM    3  C   UNL     1      21.698  -1.647  32.140  1.00  0.00     0.066 A 
HETATM    4  C   UNL     1      21.394  -2.788  31.397  1.00  0.00     0.043 A 
HETATM    5  C   UNL     1      21.463  -4.033  32.004  1.00  0.00    -0.056 A 
HETATM    6  C   UNL     1      21.828  -4.164  33.336  1.00  0.00     0.007 A 
HETATM    7  C   UNL     1      22.132  -3.023  34.078  1.00  0.00     0.003 A 
HETATM    8  C   UNL     1      22.068  -1.764  33.480  1.00  0.00     0.036 A 
BRANCH   5   9
HETATM    9  C   UNL     1      21.133  -5.266  31.203  1.00  0.00     0.038 C 
BRANCH   9  10
HETATM   10  C   UNL     1      22.364  -5.999  30.654  1.00  0.00     0.005 C 
BRANCH  10  11
HETATM   11  C   UNL     1      22.553  -7.392  31.270  1.00  0.00     0.011 C 
BRANCH  11  12
HETATM   12  C   UNL     1      23.437  -7.361  32.518  1.00  0.00     0.113 C 
BRANCH  12  13
HETATM   13  C   UNL     1      22.674  -7.617  33.799  1.00  0.00     0.172 C 
HETATM   14  O   UNL     1      23.497  -7.598  34.879  1.00  0.00    -0.648 OA
HETATM   15  O   UNL     1      21.467  -7.799  33.882  1.00  0.00    -0.648 OA
ENDBRANCH  12  13
ENDBRANCH  11  12
ENDBRANCH  10  11
ENDBRANCH   9  10
ENDBRANCH   5   9
ENDBRANCH   1   3
TORSDOF 6
ENDMDL
MODEL 5
REMARK VINA RESULT:      -6.4      2.124      6.162
REMARK  6 active torsions:
REMARK  status: ('A' for Active; 'I' for Inactive)
REMARK    1  A    between atoms: O_1  and  C_11 
REMARK    2  A    between atoms: C_4  and  C_5 
REMARK    3  A    between atoms: C_4  and  C_6 
REMARK    4  A    between atoms: C_5  and  C_7 
REMARK    5  A    between atoms: C_6  and  C_8 
REMARK    6  A    between atoms: C_8  and  C_12 
ROOT
HETATM    1  O   UNL     1      21.684  -1.127  34.828  1.00  0.00    -0.361 OA
HETATM    2  H   UNL     1      21.960  -0.245  34.673  1.00  0.00     0.217 HD
ENDROOT
BRANCH   1   3
HETATM    3  C   UNL     1      21.648  -2.019  33.801  1.00  0.00     0.066 A 
HETATM    4  C   UNL     1      22.075  -3.332  34.002  1.00  0.00     0.043 A 
HETATM    5  C   UNL     1      22.033  -4.229  32.945  1.00  0.00    -0.056 A 
HETATM    6  C   UNL     1      21.574  -3.845  31.694  1.00  0.00     0.007 A 
HETATM    7  C   UNL     1      21.147  -2.533  31.494  1.00  0.00     0.003 A 
HETATM    8  C   UNL     1      21.184  -1.619  32.548  1.00  0.00     0.036 A 
BRANCH   5   9
HETATM    9  C   UNL     1      22.495  -5.648  33.160  1.00  0.00     0.038 C 
BRANCH   9  10
HETATM   10  C   UNL     1      22.681  -6.445  31.863  1.00  0.00     0.005 C 
BRANCH  10  11
HETATM   11  C   UNL     1      23.597  -7.664  32.037  1.00  0.00     0.011 C 
BRANCH  11  12
HETATM   12  C   UNL     1      24.210  -8.125  30.713  1.00  0.00     0.113 C 
BRANCH  12  13
HETATM   13  C   UNL     1      25.208  -9.250  30.875  1.00  0.00     0.172 C 
HETATM   14  O   UNL     1      25.710  -9.289  32.136  1.00  0.00    -0.648 OA
HETATM   15  O   UNL     1      25.523 -10.050  30.006  1.00  0.00    -0.648 OA
ENDBRANCH  12  13
ENDBRANCH  11  12
ENDBRANCH  10  11
ENDBRANCH   9  10
ENDBRANCH   5   9
ENDBRANCH   1   3
TORSDOF 6
ENDMDL
MODEL 6
REMARK VINA RESULT:      -6.3      4.628      6.040
REMARK  6 active torsions:
REMARK  status: ('A' for Active; 'I' for Inactive)
REMARK    1  A    between atoms: O_1  and  C_11 
REMARK    2  A    between atoms: C_4  and  C_5 
REMARK    3  A    between atoms: C_4  and  C_6 
REMARK    4  A    between atoms: C_5  and  C_7 
REMARK    5  A    between atoms: C_6  and  C_8 
REMARK    6  A    between atoms: C_8  and  C_12 
ROOT
HETATM    1  O   UNL     1      22.581  -5.157  33.842  1.00  0.00    -0.361 OA
HETATM    2  H   UNL     1      22.010  -5.794  34.224  1.00  0.00     0.217 HD
ENDROOT
BRANCH   1   3
HETATM    3  C   UNL     1      22.062  -4.068  33.213  1.00  0.00     0.066 A 
HETATM    4  C   UNL     1      21.699  -4.145  31.869  1.00  0.00     0.043 A 
HETATM    5  C   UNL     1      21.171  -3.026  31.242  1.00  0.00    -0.056 A 
HETATM    6  C   UNL     1      20.998  -1.833  31.927  1.00  0.00     0.007 A 
HETATM    7  C   UNL     1      21.361  -1.756  33.271  1.00  0.00     0.003 A 
HETATM    8  C   UNL     1      21.893  -2.874  33.915  1.00  0.00     0.036 A 
BRANCH   5   9
HETATM    9  C   UNL     1      20.780  -3.108  29.788  1.00  0.00     0.038 C 
BRANCH   9  10
HETATM   10  C   UNL     1      19.283  -2.895  29.534  1.00  0.00     0.005 C 
BRANCH  10  11
HETATM   11  C   UNL     1      18.727  -3.811  28.435  1.00  0.00     0.011 C 
BRANCH  11  12
HETATM   12  C   UNL     1      19.445  -3.617  27.098  1.00  0.00     0.113 C 
BRANCH  12  13
HETATM   13  C   UNL     1      19.208  -2.256  26.483  1.00  0.00     0.172 C 
HETATM   14  O   UNL     1      20.374  -1.678  26.092  1.00  0.00    -0.648 OA
HETATM   15  O   UNL     1      18.117  -1.728  26.325  1.00  0.00    -0.648 OA
ENDBRANCH  12  13
ENDBRANCH  11  12
ENDBRANCH  10  11
ENDBRANCH   9  10
ENDBRANCH   5   9
ENDBRANCH   1   3
TORSDOF 6
ENDMDL
MODEL 7
REMARK VINA RESULT:      -6.3      3.868      5.735
REMARK  6 active torsions:
REMARK  status: ('A' for Active; 'I' for Inactive)
REMARK    1  A    between atoms: O_1  and  C_11 
REMARK    2  A    between atoms: C_4  and  C_5 
REMARK    3  A    between atoms: C_4  and  C_6 
REMARK    4  A    between atoms: C_5  and  C_7 
REMARK    5  A    between atoms: C_6  and  C_8 
REMARK    6  A    between atoms: C_8  and  C_12 
ROOT
HETATM    1  O   UNL     1      21.483  -0.596  31.812  1.00  0.00    -0.361 OA
HETATM    2  H   UNL     1      21.936  -0.301  31.046  1.00  0.00     0.217 HD
ENDROOT
BRANCH   1   3
HETATM    3  C   UNL     1      21.628  -1.880  32.236  1.00  0.00     0.066 A 
HETATM    4  C   UNL     1      21.477  -2.935  31.334  1.00  0.00     0.043 A 
HETATM    5  C   UNL     1      21.627  -4.239  31.782  1.00  0.00    -0.056 A 
HETATM    6  C   UNL     1      21.924  -4.514  33.108  1.00  0.00     0.007 A 
HETATM    7  C   UNL     1      22.075  -3.461  34.009  1.00  0.00     0.003 A 
HETATM    8  C   UNL     1      21.928  -2.143  33.573  1.00  0.00     0.036 A 
BRANCH   5   9
HETATM    9  C   UNL     1      21.463  -5.378  30.808  1.00  0.00     0.038 C 
BRANCH   9  10
HETATM   10  C   UNL     1      21.251  -4.931  29.357  1.00  0.00     0.005 C 
BRANCH  10  11
HETATM   11  C   UNL     1      19.967  -5.499  28.738  1.00  0.00     0.011 C 
BRANCH  11  12
HETATM   12  C   UNL     1      18.801  -4.510  28.808  1.00  0.00     0.113 C 
BRANCH  12  13
HETATM   13  C   UNL     1      19.119  -3.165  28.193  1.00  0.00     0.172 C 
HETATM   14  O   UNL     1      18.990  -2.162  29.100  1.00  0.00    -0.648 OA
HETATM   15  O   UNL     1      19.471  -2.978  27.037  1.00  0.00    -0.648 OA
ENDBRANCH  12  13
ENDBRANCH  11  12
ENDBRANCH  10  11
ENDBRANCH   9  10
ENDBRANCH   5   9
ENDBRANCH   1   3
TORSDOF 6
ENDMDL
MODEL 8
REMARK VINA RESULT:      -6.3      4.547      6.045
REMARK  6 active torsions:
REMARK  status: ('A' for Active; 'I' for Inactive)
REMARK    1  A    between atoms: O_1  and  C_11 
REMARK    2  A    between atoms: C_4  and  C_5 
REMARK    3  A    between atoms: C_4  and  C_6 
REMARK    4  A    between atoms: C_5  and  C_7 
REMARK    5  A    between atoms: C_6  and  C_8 
REMARK    6  A    between atoms: C_8  and  C_12 
ROOT
HETATM    1  O   UNL     1      21.664  -0.768  33.049  1.00  0.00    -0.361 OA
HETATM    2  H   UNL     1      20.859  -0.305  33.176  1.00  0.00     0.217 HD
ENDROOT
BRANCH   1   3
HETATM    3  C   UNL     1      21.645  -2.089  32.725  1.00  0.00     0.066 A 
HETATM    4  C   UNL     1      21.224  -2.491  31.457  1.00  0.00     0.043 A 
HETATM    5  C   UNL     1      21.210  -3.841  31.142  1.00  0.00    -0.056 A 
HETATM    6  C   UNL     1      21.607  -4.799  32.063  1.00  0.00     0.007 A 
HETATM    7  C   UNL     1      22.029  -4.397  33.330  1.00  0.00     0.003 A 
HETATM    8  C   UNL     1      22.048  -3.041  33.661  1.00  0.00     0.036 A 
BRANCH   5   9
HETATM    9  C   UNL     1      20.753  -4.277  29.773  1.00  0.00     0.038 C 
BRANCH   9  10
HETATM   10  C   UNL     1      21.826  -4.139  28.686  1.00  0.00     0.005 C 
BRANCH  10  11
HETATM   11  C   UNL     1      21.571  -2.957  27.741  1.00  0.00     0.011 C 
BRANCH  11  12
HETATM   12  C   UNL     1      20.145  -2.414  27.860  1.00  0.00     0.113 C 
BRANCH  12  13
HETATM   13  C   UNL     1      19.572  -1.942  26.542  1.00  0.00     0.172 C 
HETATM   14  O   UNL     1      18.219  -2.054  26.521  1.00  0.00    -0.648 OA
HETATM   15  O   UNL     1      20.219  -1.493  25.606  1.00  0.00    -0.648 OA
ENDBRANCH  12  13
ENDBRANCH  11  12
ENDBRANCH  10  11
ENDBRANCH   9  10
ENDBRANCH   5   9
ENDBRANCH   1   3
TORSDOF 6
ENDMDL
MODEL 9
REMARK VINA RESULT:      -6.2      4.567      6.098
REMARK  6 active torsions:
REMARK  status: ('A' for Active; 'I' for Inactive)
REMARK    1  A    between atoms: O_1  and  C_11 
REMARK    2  A    between atoms: C_4  and  C_5 
REMARK    3  A    between atoms: C_4  and  C_6 
REMARK    4  A    between atoms: C_5  and  C_7 
REMARK    5  A    between atoms: C_6  and  C_8 
REMARK    6  A    between atoms: C_8  and  C_12 
ROOT
HETATM    1  O   UNL     1      21.593  -1.176  34.399  1.00  0.00    -0.361 OA
HETATM    2  H   UNL     1      22.230  -1.228  35.084  1.00  0.00     0.217 HD
ENDROOT
BRANCH   1   3
HETATM    3  C   UNL     1      21.502  -2.172  33.477  1.00  0.00     0.066 A 
HETATM    4  C   UNL     1      20.818  -1.956  32.280  1.00  0.00     0.043 A 
HETATM    5  C   UNL     1      20.734  -2.981  31.350  1.00  0.00    -0.056 A 
HETATM    6  C   UNL     1      21.317  -4.217  31.588  1.00  0.00     0.007 A 
HETATM    7  C   UNL     1      22.001  -4.433  32.784  1.00  0.00     0.003 A 
HETATM    8  C   UNL     1      22.094  -3.410  33.729  1.00  0.00     0.036 A 
BRANCH   5   9
HETATM    9  C   UNL     1      19.994  -2.749  30.058  1.00  0.00     0.038 C 
BRANCH   9  10
HETATM   10  C   UNL     1      19.727  -4.028  29.255  1.00  0.00     0.005 C 
BRANCH  10  11
HETATM   11  C   UNL     1      20.175  -3.920  27.792  1.00  0.00     0.011 C 
BRANCH  11  12
HETATM   12  C   UNL     1      19.077  -3.356  26.887  1.00  0.00     0.113 C 
BRANCH  12  13
HETATM   13  C   UNL     1      19.325  -1.924  26.467  1.00  0.00     0.172 C 
HETATM   14  O   UNL     1      18.714  -1.049  27.307  1.00  0.00    -0.648 OA
HETATM   15  O   UNL     1      20.002  -1.571  25.512  1.00  0.00    -0.648 OA
ENDBRANCH  12  13
ENDBRANCH  11  12
ENDBRANCH  10  11
ENDBRANCH   9  10
ENDBRANCH   5   9
ENDBRANCH   1   3
TORSDOF 6
ENDMDL
