MODEL 1
REMARK VINA RESULT:      -7.1      0.000      0.000
REMARK  6 active torsions:
REMARK  status: ('A' for Active; 'I' for Inactive)
REMARK    1  A    between atoms: O_1  and  C_11 
REMARK    2  A    between atoms: C_4  and  C_5 
REMARK    3  A    between atoms: C_4  and  C_6 
REMARK    4  A    between atoms: C_5  and  C_7 
REMARK    5  A    between atoms: C_6  and  C_8 
REMARK    6  A    between atoms: C_8  and  C_12 
ROOT
HETATM    1  O   UNL     1      18.091   5.938   9.234  1.00  0.00    -0.361 OA
HETATM    2  H   UNL     1      18.929   5.521   9.190  1.00  0.00     0.217 HD
ENDROOT
BRANCH   1   3
HETATM    3  C   UNL     1      17.368   5.892  10.385  1.00  0.00     0.066 A 
HETATM    4  C   UNL     1      16.013   6.225  10.373  1.00  0.00     0.043 A 
HETATM    5  C   UNL     1      15.289   6.174  11.555  1.00  0.00    -0.056 A 
HETATM    6  C   UNL     1      15.888   5.798  12.748  1.00  0.00     0.007 A 
HETATM    7  C   UNL     1      17.241   5.465  12.761  1.00  0.00     0.003 A 
HETATM    8  C   UNL     1      17.982   5.512  11.579  1.00  0.00     0.036 A 
BRANCH   5   9
HETATM    9  C   UNL     1      13.826   6.534  11.542  1.00  0.00     0.038 C 
BRANCH   9  10
HETATM   10  C   UNL     1      12.886   5.324  11.612  1.00  0.00     0.005 C 
BRANCH  10  11
HETATM   11  C   UNL     1      12.177   5.040  10.282  1.00  0.00     0.011 C 
BRANCH  11  12
HETATM   12  C   UNL     1      12.343   6.183   9.278  1.00  0.00     0.113 C 
BRANCH  12  13
HETATM   13  C   UNL     1      12.789   5.718   7.909  1.00  0.00     0.172 C 
HETATM   14  O   UNL     1      12.551   4.392   7.735  1.00  0.00    -0.648 OA
HETATM   15  O   UNL     1      13.283   6.427   7.044  1.00  0.00    -0.648 OA
ENDBRANCH  12  13
ENDBRANCH  11  12
ENDBRANCH  10  11
ENDBRANCH   9  10
ENDBRANCH   5   9
ENDBRANCH   1   3
TORSDOF 6
ENDMDL
MODEL 2
REMARK VINA RESULT:      -7.0      1.044      1.388
REMARK  6 active torsions:
REMARK  status: ('A' for Active; 'I' for Inactive)
REMARK    1  A    between atoms: O_1  and  C_11 
REMARK    2  A    between atoms: C_4  and  C_5 
REMARK    3  A    between atoms: C_4  and  C_6 
REMARK    4  A    between atoms: C_5  and  C_7 
REMARK    5  A    between atoms: C_6  and  C_8 
REMARK    6  A    between atoms: C_8  and  C_12 
ROOT
HETATM    1  O   UNL     1      19.570   5.379  10.230  1.00  0.00    -0.361 OA
HETATM    2  H   UNL     1      19.579   5.307   9.295  1.00  0.00     0.217 HD
ENDROOT
BRANCH   1   3
HETATM    3  C   UNL     1      18.389   5.519  10.890  1.00  0.00     0.066 A 
HETATM    4  C   UNL     1      17.238   5.885  10.193  1.00  0.00     0.043 A 
HETATM    5  C   UNL     1      16.041   6.024  10.881  1.00  0.00    -0.056 A 
HETATM    6  C   UNL     1      15.969   5.806  12.249  1.00  0.00     0.007 A 
HETATM    7  C   UNL     1      17.120   5.440  12.945  1.00  0.00     0.003 A 
HETATM    8  C   UNL     1      18.331   5.296  12.267  1.00  0.00     0.036 A 
BRANCH   5   9
HETATM    9  C   UNL     1      14.797   6.421  10.128  1.00  0.00     0.038 C 
BRANCH   9  10
HETATM   10  C   UNL     1      13.493   5.988  10.810  1.00  0.00     0.005 C 
BRANCH  10  11
HETATM   11  C   UNL     1      12.321   5.858   9.829  1.00  0.00     0.011 C 
BRANCH  11  12
HETATM   12  C   UNL     1      12.723   5.153   8.531  1.00  0.00     0.113 C 
BRANCH  12  13
HETATM   13  C   UNL     1      12.514   6.005   7.298  1.00  0.00     0.172 C 
HETATM   14  O   UNL     1      13.599   6.782   7.042  1.00  0.00    -0.648 OA
HETATM   15  O   UNL     1      11.516   5.999   6.592  1.00  0.00    -0.648 OA
ENDBRANCH  12  13
ENDBRANCH  11  12
ENDBRANCH  10  11
ENDBRANCH   9  10
ENDBRANCH   5   9
ENDBRANCH   1   3
TORSDOF 6
ENDMDL
MODEL 3
REMARK VINA RESULT:      -6.9      1.826      5.093
REMARK  6 active torsions:
REMARK  status: ('A' for Active; 'I' for Inactive)
REMARK    1  A    between atoms: O_1  and  C_11 
REMARK    2  A    between atoms: C_4  and  C_5 
REMARK    3  A    between atoms: C_4  and  C_6 
REMARK    4  A    between atoms: C_5  and  C_7 
REMARK    5  A    between atoms: C_6  and  C_8 
REMARK    6  A    between atoms: C_8  and  C_12 
ROOT
HETATM    1  O   UNL     1      10.981   4.938  11.046  1.00  0.00    -0.361 OA
HETATM    2  H   UNL     1      10.324   5.551  11.311  1.00  0.00     0.217 HD
ENDROOT
BRANCH   1   3
HETATM    3  C   UNL     1      12.241   5.369  10.768  1.00  0.00     0.066 A 
HETATM    4  C   UNL     1      13.123   5.667  11.807  1.00  0.00     0.043 A 
HETATM    5  C   UNL     1      14.404   6.106  11.507  1.00  0.00    -0.056 A 
HETATM    6  C   UNL     1      14.824   6.254  10.194  1.00  0.00     0.007 A 
HETATM    7  C   UNL     1      13.943   5.956   9.156  1.00  0.00     0.003 A 
HETATM    8  C   UNL     1      12.651   5.513   9.442  1.00  0.00     0.036 A 
BRANCH   5   9
HETATM    9  C   UNL     1      15.357   6.429  12.630  1.00  0.00     0.038 C 
BRANCH   9  10
HETATM   10  C   UNL     1      16.517   5.437  12.766  1.00  0.00     0.005 C 
BRANCH  10  11
HETATM   11  C   UNL     1      17.883   6.068  12.466  1.00  0.00     0.011 C 
BRANCH  11  12
HETATM   12  C   UNL     1      18.501   5.531  11.173  1.00  0.00     0.113 C 
BRANCH  12  13
HETATM   13  C   UNL     1      18.334   6.466   9.996  1.00  0.00     0.172 C 
HETATM   14  O   UNL     1      18.259   5.781   8.825  1.00  0.00    -0.648 OA
HETATM   15  O   UNL     1      18.251   7.684  10.063  1.00  0.00    -0.648 OA
ENDBRANCH  12  13
ENDBRANCH  11  12
ENDBRANCH  10  11
ENDBRANCH   9  10
ENDBRANCH   5   9
ENDBRANCH   1   3
TORSDOF 6
ENDMDL
MODEL 4
REMARK VINA RESULT:      -6.8      3.372      4.268
REMARK  6 active torsions:
REMARK  status: ('A' for Active; 'I' for Inactive)
REMARK    1  A    between atoms: O_1  and  C_11 
REMARK    2  A    between atoms: C_4  and  C_5 
REMARK    3  A    between atoms: C_4  and  C_6 
REMARK    4  A    between atoms: C_5  and  C_7 
REMARK    5  A    between atoms: C_6  and  C_8 
REMARK    6  A    between atoms: C_8  and  C_12 
ROOT
HETATM    1  O   UNL     1      11.984   6.888  17.030  1.00  0.00    -0.361 OA
HETATM    2  H   UNL     1      12.442   6.946  17.845  1.00  0.00     0.217 HD
ENDROOT
BRANCH   1   3
HETATM    3  C   UNL     1      12.666   6.624  15.883  1.00  0.00     0.066 A 
HETATM    4  C   UNL     1      12.004   6.649  14.655  1.00  0.00     0.043 A 
HETATM    5  C   UNL     1      12.713   6.377  13.494  1.00  0.00    -0.056 A 
HETATM    6  C   UNL     1      14.068   6.080  13.532  1.00  0.00     0.007 A 
HETATM    7  C   UNL     1      14.729   6.056  14.759  1.00  0.00     0.003 A 
HETATM    8  C   UNL     1      14.029   6.328  15.935  1.00  0.00     0.036 A 
BRANCH   5   9
HETATM    9  C   UNL     1      11.999   6.402  12.167  1.00  0.00     0.038 C 
BRANCH   9  10
HETATM   10  C   UNL     1      12.404   5.266  11.221  1.00  0.00     0.005 C 
BRANCH  10  11
HETATM   11  C   UNL     1      13.126   5.766   9.962  1.00  0.00     0.011 C 
BRANCH  11  12
HETATM   12  C   UNL     1      12.155   6.308   8.911  1.00  0.00     0.113 C 
BRANCH  12  13
HETATM   13  C   UNL     1      12.352   5.695   7.542  1.00  0.00     0.172 C 
HETATM   14  O   UNL     1      12.901   4.455   7.628  1.00  0.00    -0.648 OA
HETATM   15  O   UNL     1      12.045   6.216   6.479  1.00  0.00    -0.648 OA
ENDBRANCH  12  13
ENDBRANCH  11  12
ENDBRANCH  10  11
ENDBRANCH   9  10
ENDBRANCH   5   9
ENDBRANCH   1   3
TORSDOF 6
ENDMDL
MODEL 5
REMARK VINA RESULT:      -6.8      1.569      2.204
REMARK  6 active torsions:
REMARK  status: ('A' for Active; 'I' for Inactive)
REMARK    1  A    between atoms: O_1  and  C_11 
REMARK    2  A    between atoms: C_4  and  C_5 
REMARK    3  A    between atoms: C_4  and  C_6 
REMARK    4  A    between atoms: C_5  and  C_7 
REMARK    5  A    between atoms: C_6  and  C_8 
REMARK    6  A    between atoms: C_8  and  C_12 
ROOT
HETATM    1  O   UNL     1      17.154   5.061  14.555  1.00  0.00    -0.361 OA
HETATM    2  H   UNL     1      16.360   5.040  15.052  1.00  0.00     0.217 HD
ENDROOT
BRANCH   1   3
HETATM    3  C   UNL     1      17.118   5.353  13.227  1.00  0.00     0.066 A 
HETATM    4  C   UNL     1      15.907   5.679  12.616  1.00  0.00     0.043 A 
HETATM    5  C   UNL     1      15.886   5.974  11.261  1.00  0.00    -0.056 A 
HETATM    6  C   UNL     1      17.047   5.950  10.502  1.00  0.00     0.007 A 
HETATM    7  C   UNL     1      18.257   5.624  11.113  1.00  0.00     0.003 A 
HETATM    8  C   UNL     1      18.293   5.326  12.475  1.00  0.00     0.036 A 
BRANCH   5   9
HETATM    9  C   UNL     1      14.577   6.325  10.600  1.00  0.00     0.038 C 
BRANCH   9  10
HETATM   10  C   UNL     1      13.346   5.765  11.322  1.00  0.00     0.005 C 
BRANCH  10  11
HETATM   11  C   UNL     1      12.154   5.536  10.383  1.00  0.00     0.011 C 
BRANCH  11  12
HETATM   12  C   UNL     1      12.263   6.356   9.095  1.00  0.00     0.113 C 
BRANCH  12  13
HETATM   13  C   UNL     1      12.654   5.528   7.890  1.00  0.00     0.172 C 
HETATM   14  O   UNL     1      13.194   6.301   6.912  1.00  0.00    -0.648 OA
HETATM   15  O   UNL     1      12.531   4.316   7.792  1.00  0.00    -0.648 OA
ENDBRANCH  12  13
ENDBRANCH  11  12
ENDBRANCH  10  11
ENDBRANCH   9  10
ENDBRANCH   5   9
ENDBRANCH   1   3
TORSDOF 6
ENDMDL
MODEL 6
REMARK VINA RESULT:      -6.7      1.087      4.779
REMARK  6 active torsions:
REMARK  status: ('A' for Active; 'I' for Inactive)
REMARK    1  A    between atoms: O_1  and  C_11 
REMARK    2  A    between atoms: C_4  and  C_5 
REMARK    3  A    between atoms: C_4  and  C_6 
REMARK    4  A    between atoms: C_5  and  C_7 
REMARK    5  A    between atoms: C_6  and  C_8 
REMARK    6  A    between atoms: C_8  and  C_12 
ROOT
HETATM    1  O   UNL     1      13.802   5.798   8.011  1.00  0.00    -0.361 OA
HETATM    2  H   UNL     1      13.690   4.976   7.576  1.00  0.00     0.217 HD
ENDROOT
BRANCH   1   3
HETATM    3  C   UNL     1      13.546   5.902   9.344  1.00  0.00     0.066 A 
HETATM    4  C   UNL     1      14.590   6.142  10.238  1.00  0.00     0.043 A 
HETATM    5  C   UNL     1      14.314   6.245  11.593  1.00  0.00    -0.056 A 
HETATM    6  C   UNL     1      13.020   6.115  12.075  1.00  0.00     0.007 A 
HETATM    7  C   UNL     1      11.977   5.877  11.181  1.00  0.00     0.003 A 
HETATM    8  C   UNL     1      12.240   5.770   9.815  1.00  0.00     0.036 A 
BRANCH   5   9
HETATM    9  C   UNL     1      15.442   6.502  12.560  1.00  0.00     0.038 C 
BRANCH   9  10
HETATM   10  C   UNL     1      16.486   5.381  12.610  1.00  0.00     0.005 C 
BRANCH  10  11
HETATM   11  C   UNL     1      17.925   5.898  12.480  1.00  0.00     0.011 C 
BRANCH  11  12
HETATM   12  C   UNL     1      18.570   5.494  11.152  1.00  0.00     0.113 C 
BRANCH  12  13
HETATM   13  C   UNL     1      18.314   6.483  10.037  1.00  0.00     0.172 C 
HETATM   14  O   UNL     1      18.297   5.871   8.824  1.00  0.00    -0.648 OA
HETATM   15  O   UNL     1      18.120   7.682  10.181  1.00  0.00    -0.648 OA
ENDBRANCH  12  13
ENDBRANCH  11  12
ENDBRANCH  10  11
ENDBRANCH   9  10
ENDBRANCH   5   9
ENDBRANCH   1   3
TORSDOF 6
ENDMDL
MODEL 7
REMARK VINA RESULT:      -6.3      3.142      3.762
REMARK  6 active torsions:
REMARK  status: ('A' for Active; 'I' for Inactive)
REMARK    1  A    between atoms: O_1  and  C_11 
REMARK    2  A    between atoms: C_4  and  C_5 
REMARK    3  A    between atoms: C_4  and  C_6 
REMARK    4  A    between atoms: C_5  and  C_7 
REMARK    5  A    between atoms: C_6  and  C_8 
REMARK    6  A    between atoms: C_8  and  C_12 
ROOT
HETATM    1  O   UNL     1      18.589   6.024   8.889  1.00  0.00    -0.361 OA
HETATM    2  H   UNL     1      19.118   6.768   8.679  1.00  0.00     0.217 HD
ENDROOT
BRANCH   1   3
HETATM    3  C   UNL     1      18.006   5.928  10.115  1.00  0.00     0.066 A 
HETATM    4  C   UNL     1      16.696   6.370  10.301  1.00  0.00     0.043 A 
HETATM    5  C   UNL     1      16.116   6.266  11.556  1.00  0.00    -0.056 A 
HETATM    6  C   UNL     1      16.814   5.732  12.629  1.00  0.00     0.007 A 
HETATM    7  C   UNL     1      18.123   5.290  12.443  1.00  0.00     0.003 A 
HETATM    8  C   UNL     1      18.720   5.388  11.185  1.00  0.00     0.036 A 
BRANCH   5   9
HETATM    9  C   UNL     1      14.700   6.744  11.759  1.00  0.00     0.038 C 
BRANCH   9  10
HETATM   10  C   UNL     1      13.639   5.822  11.148  1.00  0.00     0.005 C 
BRANCH  10  11
HETATM   11  C   UNL     1      12.469   5.544  12.102  1.00  0.00     0.011 C 
BRANCH  11  12
HETATM   12  C   UNL     1      12.936   5.278  13.535  1.00  0.00     0.113 C 
BRANCH  12  13
HETATM   13  C   UNL     1      12.321   6.218  14.548  1.00  0.00     0.172 C 
HETATM   14  O   UNL     1      12.908   6.086  15.766  1.00  0.00    -0.648 OA
HETATM   15  O   UNL     1      11.425   7.018  14.322  1.00  0.00    -0.648 OA
ENDBRANCH  12  13
ENDBRANCH  11  12
ENDBRANCH  10  11
ENDBRANCH   9  10
ENDBRANCH   5   9
ENDBRANCH   1   3
TORSDOF 6
ENDMDL
MODEL 8
REMARK VINA RESULT:      -6.3      3.768      5.843
REMARK  6 active torsions:
REMARK  status: ('A' for Active; 'I' for Inactive)
REMARK    1  A    between atoms: O_1  and  C_11 
REMARK    2  A    between atoms: C_4  and  C_5 
REMARK    3  A    between atoms: C_4  and  C_6 
REMARK    4  A    between atoms: C_5  and  C_7 
REMARK    5  A    between atoms: C_6  and  C_8 
REMARK    6  A    between atoms: C_8  and  C_12 
ROOT
HETATM    1  O   UNL     1      10.987   4.859  11.213  1.00  0.00    -0.361 OA
HETATM    2  H   UNL     1      10.826   4.826  12.135  1.00  0.00     0.217 HD
ENDROOT
BRANCH   1   3
HETATM    3  C   UNL     1      12.185   5.304  10.747  1.00  0.00     0.066 A 
HETATM    4  C   UNL     1      13.199   5.647  11.642  1.00  0.00     0.043 A 
HETATM    5  C   UNL     1      14.414   6.100  11.151  1.00  0.00    -0.056 A 
HETATM    6  C   UNL     1      14.640   6.219   9.788  1.00  0.00     0.007 A 
HETATM    7  C   UNL     1      13.627   5.876   8.894  1.00  0.00     0.003 A 
HETATM    8  C   UNL     1      12.399   5.418   9.373  1.00  0.00     0.036 A 
BRANCH   5   9
HETATM    9  C   UNL     1      15.510   6.472  12.118  1.00  0.00     0.038 C 
BRANCH   9  10
HETATM   10  C   UNL     1      15.718   5.452  13.244  1.00  0.00     0.005 C 
BRANCH  10  11
HETATM   11  C   UNL     1      15.348   6.005  14.627  1.00  0.00     0.011 C 
BRANCH  11  12
HETATM   12  C   UNL     1      14.132   5.298  15.230  1.00  0.00     0.113 C 
BRANCH  12  13
HETATM   13  C   UNL     1      13.183   6.240  15.938  1.00  0.00     0.172 C 
HETATM   14  O   UNL     1      12.287   6.782  15.074  1.00  0.00    -0.648 OA
HETATM   15  O   UNL     1      13.185   6.482  17.137  1.00  0.00    -0.648 OA
ENDBRANCH  12  13
ENDBRANCH  11  12
ENDBRANCH  10  11
ENDBRANCH   9  10
ENDBRANCH   5   9
ENDBRANCH   1   3
TORSDOF 6
ENDMDL
MODEL 9
REMARK VINA RESULT:      -6.2      3.079      5.686
REMARK  6 active torsions:
REMARK  status: ('A' for Active; 'I' for Inactive)
REMARK    1  A    between atoms: O_1  and  C_11 
REMARK    2  A    between atoms: C_4  and  C_5 
REMARK    3  A    between atoms: C_4  and  C_6 
REMARK    4  A    between atoms: C_5  and  C_7 
REMARK    5  A    between atoms: C_6  and  C_8 
REMARK    6  A    between atoms: C_8  and  C_12 
ROOT
HETATM    1  O   UNL     1      11.088   4.856  11.493  1.00  0.00    -0.361 OA
HETATM    2  H   UNL     1      10.572   4.180  11.100  1.00  0.00     0.217 HD
ENDROOT
BRANCH   1   3
HETATM    3  C   UNL     1      12.218   5.296  10.876  1.00  0.00     0.066 A 
HETATM    4  C   UNL     1      13.298   5.745  11.636  1.00  0.00     0.043 A 
HETATM    5  C   UNL     1      14.443   6.191  10.992  1.00  0.00    -0.056 A 
HETATM    6  C   UNL     1      14.533   6.198   9.608  1.00  0.00     0.007 A 
HETATM    7  C   UNL     1      13.454   5.748   8.849  1.00  0.00     0.003 A 
HETATM    8  C   UNL     1      12.295   5.297   9.483  1.00  0.00     0.036 A 
BRANCH   5   9
HETATM    9  C   UNL     1      15.611   6.678  11.812  1.00  0.00     0.038 C 
BRANCH   9  10
HETATM   10  C   UNL     1      16.524   5.557  12.322  1.00  0.00     0.005 C 
BRANCH  10  11
HETATM   11  C   UNL     1      16.899   5.718  13.801  1.00  0.00     0.011 C 
BRANCH  11  12
HETATM   12  C   UNL     1      15.680   5.638  14.722  1.00  0.00     0.113 C 
BRANCH  12  13
HETATM   13  C   UNL     1      15.096   4.245  14.824  1.00  0.00     0.172 C 
HETATM   14  O   UNL     1      16.017   3.354  15.275  1.00  0.00    -0.648 OA
HETATM   15  O   UNL     1      13.942   3.938  14.562  1.00  0.00    -0.648 OA
ENDBRANCH  12  13
ENDBRANCH  11  12
ENDBRANCH  10  11
ENDBRANCH   9  10
ENDBRANCH   5   9
ENDBRANCH   1   3
TORSDOF 6
ENDMDL
