MODEL 1
REMARK VINA RESULT:      -7.0      0.000      0.000
REMARK  6 active torsions:
REMARK  status: ('A' for Active; 'I' for Inactive)
REMARK    1  A    between atoms: O_1  and  C_11 
REMARK    2  A    between atoms: C_4  and  C_5 
REMARK    3  A    between atoms: C_4  and  C_6 
REMARK    4  A    between atoms: C_5  and  C_7 
REMARK    5  A    between atoms: C_6  and  C_8 
REMARK    6  A    between atoms: C_8  and  C_12 
ROOT
HETATM    1  O   UNL     1      18.197   6.575   9.182  1.00  0.00    -0.361 OA
HETATM    2  H   UNL     1      18.404   7.466   8.979  1.00  0.00     0.217 HD
ENDROOT
BRANCH   1   3
HETATM    3  C   UNL     1      17.481   6.280  10.301  1.00  0.00     0.066 A 
HETATM    4  C   UNL     1      16.115   6.561  10.351  1.00  0.00     0.043 A 
HETATM    5  C   UNL     1      15.400   6.256  11.498  1.00  0.00    -0.056 A 
HETATM    6  C   UNL     1      16.016   5.676  12.597  1.00  0.00     0.007 A 
HETATM    7  C   UNL     1      17.381   5.395  12.547  1.00  0.00     0.003 A 
HETATM    8  C   UNL     1      18.114   5.696  11.399  1.00  0.00     0.036 A 
BRANCH   5   9
HETATM    9  C   UNL     1      13.924   6.561  11.554  1.00  0.00     0.038 C 
BRANCH   9  10
HETATM   10  C   UNL     1      13.030   5.315  11.526  1.00  0.00     0.005 C 
BRANCH  10  11
HETATM   11  C   UNL     1      11.980   5.358  10.408  1.00  0.00     0.011 C 
BRANCH  11  12
HETATM   12  C   UNL     1      12.401   6.265   9.249  1.00  0.00     0.113 C 
BRANCH  12  13
HETATM   13  C   UNL     1      12.705   5.507   7.976  1.00  0.00     0.172 C 
HETATM   14  O   UNL     1      13.205   6.329   7.017  1.00  0.00    -0.648 OA
HETATM   15  O   UNL     1      12.551   4.305   7.811  1.00  0.00    -0.648 OA
ENDBRANCH  12  13
ENDBRANCH  11  12
ENDBRANCH  10  11
ENDBRANCH   9  10
ENDBRANCH   5   9
ENDBRANCH   1   3
TORSDOF 6
ENDMDL
MODEL 2
REMARK VINA RESULT:      -6.9      1.832      5.183
REMARK  6 active torsions:
REMARK  status: ('A' for Active; 'I' for Inactive)
REMARK    1  A    between atoms: O_1  and  C_11 
REMARK    2  A    between atoms: C_4  and  C_5 
REMARK    3  A    between atoms: C_4  and  C_6 
REMARK    4  A    between atoms: C_5  and  C_7 
REMARK    5  A    between atoms: C_6  and  C_8 
REMARK    6  A    between atoms: C_8  and  C_12 
ROOT
HETATM    1  O   UNL     1      10.984   4.863  11.089  1.00  0.00    -0.361 OA
HETATM    2  H   UNL     1      10.685   4.072  10.686  1.00  0.00     0.217 HD
ENDROOT
BRANCH   1   3
HETATM    3  C   UNL     1      12.236   5.328  10.831  1.00  0.00     0.066 A 
HETATM    4  C   UNL     1      13.106   5.614  11.884  1.00  0.00     0.043 A 
HETATM    5  C   UNL     1      14.379   6.088  11.605  1.00  0.00    -0.056 A 
HETATM    6  C   UNL     1      14.802   6.284  10.299  1.00  0.00     0.007 A 
HETATM    7  C   UNL     1      13.933   5.998   9.247  1.00  0.00     0.003 A 
HETATM    8  C   UNL     1      12.650   5.520   9.512  1.00  0.00     0.036 A 
BRANCH   5   9
HETATM    9  C   UNL     1      15.318   6.398  12.742  1.00  0.00     0.038 C 
BRANCH   9  10
HETATM   10  C   UNL     1      16.536   5.469  12.814  1.00  0.00     0.005 C 
BRANCH  10  11
HETATM   11  C   UNL     1      17.849   6.173  12.448  1.00  0.00     0.011 C 
BRANCH  11  12
HETATM   12  C   UNL     1      18.482   5.600  11.178  1.00  0.00     0.113 C 
BRANCH  12  13
HETATM   13  C   UNL     1      18.312   6.494   9.969  1.00  0.00     0.172 C 
HETATM   14  O   UNL     1      18.271   5.771   8.820  1.00  0.00    -0.648 OA
HETATM   15  O   UNL     1      18.202   7.711   9.996  1.00  0.00    -0.648 OA
ENDBRANCH  12  13
ENDBRANCH  11  12
ENDBRANCH  10  11
ENDBRANCH   9  10
ENDBRANCH   5   9
ENDBRANCH   1   3
TORSDOF 6
ENDMDL
MODEL 3
REMARK VINA RESULT:      -6.7      1.091      4.820
REMARK  6 active torsions:
REMARK  status: ('A' for Active; 'I' for Inactive)
REMARK    1  A    between atoms: O_1  and  C_11 
REMARK    2  A    between atoms: C_4  and  C_5 
REMARK    3  A    between atoms: C_4  and  C_6 
REMARK    4  A    between atoms: C_5  and  C_7 
REMARK    5  A    between atoms: C_6  and  C_8 
REMARK    6  A    between atoms: C_8  and  C_12 
ROOT
HETATM    1  O   UNL     1      13.801   5.777   8.022  1.00  0.00    -0.361 OA
HETATM    2  H   UNL     1      13.248   5.303   7.433  1.00  0.00     0.217 HD
ENDROOT
BRANCH   1   3
HETATM    3  C   UNL     1      13.526   5.785   9.354  1.00  0.00     0.066 A 
HETATM    4  C   UNL     1      14.513   6.156  10.268  1.00  0.00     0.043 A 
HETATM    5  C   UNL     1      14.218   6.159  11.623  1.00  0.00    -0.056 A 
HETATM    6  C   UNL     1      12.961   5.801  12.086  1.00  0.00     0.007 A 
HETATM    7  C   UNL     1      11.975   5.431  11.173  1.00  0.00     0.003 A 
HETATM    8  C   UNL     1      12.257   5.423   9.806  1.00  0.00     0.036 A 
BRANCH   5   9
HETATM    9  C   UNL     1      15.285   6.558  12.612  1.00  0.00     0.038 C 
BRANCH   9  10
HETATM   10  C   UNL     1      16.393   5.513  12.787  1.00  0.00     0.005 C 
BRANCH  10  11
HETATM   11  C   UNL     1      17.790   6.065  12.477  1.00  0.00     0.011 C 
BRANCH  11  12
HETATM   12  C   UNL     1      18.386   5.461  11.203  1.00  0.00     0.113 C 
BRANCH  12  13
HETATM   13  C   UNL     1      18.279   6.373  10.001  1.00  0.00     0.172 C 
HETATM   14  O   UNL     1      17.992   7.648  10.370  1.00  0.00    -0.648 OA
HETATM   15  O   UNL     1      18.446   6.037   8.837  1.00  0.00    -0.648 OA
ENDBRANCH  12  13
ENDBRANCH  11  12
ENDBRANCH  10  11
ENDBRANCH   9  10
ENDBRANCH   5   9
ENDBRANCH   1   3
TORSDOF 6
ENDMDL
MODEL 4
REMARK VINA RESULT:      -6.7      1.354      2.050
REMARK  6 active torsions:
REMARK  status: ('A' for Active; 'I' for Inactive)
REMARK    1  A    between atoms: O_1  and  C_11 
REMARK    2  A    between atoms: C_4  and  C_5 
REMARK    3  A    between atoms: C_4  and  C_6 
REMARK    4  A    between atoms: C_5  and  C_7 
REMARK    5  A    between atoms: C_6  and  C_8 
REMARK    6  A    between atoms: C_8  and  C_12 
ROOT
HETATM    1  O   UNL     1      18.242   5.830  13.616  1.00  0.00    -0.361 OA
HETATM    2  H   UNL     1      18.752   5.049  13.702  1.00  0.00     0.217 HD
ENDROOT
BRANCH   1   3
HETATM    3  C   UNL     1      17.308   5.927  12.631  1.00  0.00     0.066 A 
HETATM    4  C   UNL     1      15.962   5.700  12.920  1.00  0.00     0.043 A 
HETATM    5  C   UNL     1      15.022   5.802  11.906  1.00  0.00    -0.056 A 
HETATM    6  C   UNL     1      15.395   6.127  10.610  1.00  0.00     0.007 A 
HETATM    7  C   UNL     1      16.740   6.355  10.322  1.00  0.00     0.003 A 
HETATM    8  C   UNL     1      17.697   6.256  11.332  1.00  0.00     0.036 A 
BRANCH   5   9
HETATM    9  C   UNL     1      13.568   5.554  12.217  1.00  0.00     0.038 C 
BRANCH   9  10
HETATM   10  C   UNL     1      12.599   6.373  11.355  1.00  0.00     0.005 C 
BRANCH  10  11
HETATM   11  C   UNL     1      12.019   5.571  10.182  1.00  0.00     0.011 C 
BRANCH  11  12
HETATM   12  C   UNL     1      11.933   6.399   8.898  1.00  0.00     0.113 C 
BRANCH  12  13
HETATM   13  C   UNL     1      12.683   5.783   7.738  1.00  0.00     0.172 C 
HETATM   14  O   UNL     1      12.578   4.429   7.742  1.00  0.00    -0.648 OA
HETATM   15  O   UNL     1      13.295   6.402   6.879  1.00  0.00    -0.648 OA
ENDBRANCH  12  13
ENDBRANCH  11  12
ENDBRANCH  10  11
ENDBRANCH   9  10
ENDBRANCH   5   9
ENDBRANCH   1   3
TORSDOF 6
ENDMDL
MODEL 5
REMARK VINA RESULT:      -6.5      3.378      4.410
REMARK  6 active torsions:
REMARK  status: ('A' for Active; 'I' for Inactive)
REMARK    1  A    between atoms: O_1  and  C_11 
REMARK    2  A    between atoms: C_4  and  C_5 
REMARK    3  A    between atoms: C_4  and  C_6 
REMARK    4  A    between atoms: C_5  and  C_7 
REMARK    5  A    between atoms: C_6  and  C_8 
REMARK    6  A    between atoms: C_8  and  C_12 
ROOT
HETATM    1  O   UNL     1      11.923   6.893  16.966  1.00  0.00    -0.361 OA
HETATM    2  H   UNL     1      10.987   6.928  16.940  1.00  0.00     0.217 HD
ENDROOT
BRANCH   1   3
HETATM    3  C   UNL     1      12.628   6.698  15.819  1.00  0.00     0.066 A 
HETATM    4  C   UNL     1      11.970   6.682  14.589  1.00  0.00     0.043 A 
HETATM    5  C   UNL     1      12.703   6.482  13.429  1.00  0.00    -0.056 A 
HETATM    6  C   UNL     1      14.077   6.298  13.469  1.00  0.00     0.007 A 
HETATM    7  C   UNL     1      14.734   6.315  14.698  1.00  0.00     0.003 A 
HETATM    8  C   UNL     1      14.010   6.516  15.874  1.00  0.00     0.036 A 
BRANCH   5   9
HETATM    9  C   UNL     1      11.992   6.462  12.099  1.00  0.00     0.038 C 
BRANCH   9  10
HETATM   10  C   UNL     1      12.008   5.095  11.405  1.00  0.00     0.005 C 
BRANCH  10  11
HETATM   11  C   UNL     1      12.774   5.108  10.076  1.00  0.00     0.011 C 
BRANCH  11  12
HETATM   12  C   UNL     1      12.249   6.174   9.112  1.00  0.00     0.113 C 
BRANCH  12  13
HETATM   13  C   UNL     1      12.703   5.966   7.684  1.00  0.00     0.172 C 
HETATM   14  O   UNL     1      12.234   4.796   7.180  1.00  0.00    -0.648 OA
HETATM   15  O   UNL     1      13.386   6.746   7.035  1.00  0.00    -0.648 OA
ENDBRANCH  12  13
ENDBRANCH  11  12
ENDBRANCH  10  11
ENDBRANCH   9  10
ENDBRANCH   5   9
ENDBRANCH   1   3
TORSDOF 6
ENDMDL
MODEL 6
REMARK VINA RESULT:      -6.4      3.135      5.738
REMARK  6 active torsions:
REMARK  status: ('A' for Active; 'I' for Inactive)
REMARK    1  A    between atoms: O_1  and  C_11 
REMARK    2  A    between atoms: C_4  and  C_5 
REMARK    3  A    between atoms: C_4  and  C_6 
REMARK    4  A    between atoms: C_5  and  C_7 
REMARK    5  A    between atoms: C_6  and  C_8 
REMARK    6  A    between atoms: C_8  and  C_12 
ROOT
HETATM    1  O   UNL     1      10.948   4.801  11.269  1.00  0.00    -0.361 OA
HETATM    2  H   UNL     1      10.488   4.086  10.874  1.00  0.00     0.217 HD
ENDROOT
BRANCH   1   3
HETATM    3  C   UNL     1      12.101   5.260  10.710  1.00  0.00     0.066 A 
HETATM    4  C   UNL     1      13.140   5.710  11.525  1.00  0.00     0.043 A 
HETATM    5  C   UNL     1      14.309   6.176  10.940  1.00  0.00    -0.056 A 
HETATM    6  C   UNL     1      14.462   6.202   9.562  1.00  0.00     0.007 A 
HETATM    7  C   UNL     1      13.424   5.752   8.749  1.00  0.00     0.003 A 
HETATM    8  C   UNL     1      12.242   5.280   9.322  1.00  0.00     0.036 A 
BRANCH   5   9
HETATM    9  C   UNL     1      15.432   6.664  11.819  1.00  0.00     0.038 C 
BRANCH   9  10
HETATM   10  C   UNL     1      16.518   5.614  12.082  1.00  0.00     0.005 C 
BRANCH  10  11
HETATM   11  C   UNL     1      16.923   5.530  13.560  1.00  0.00     0.011 C 
BRANCH  11  12
HETATM   12  C   UNL     1      15.714   5.550  14.497  1.00  0.00     0.113 C 
BRANCH  12  13
HETATM   13  C   UNL     1      15.233   4.168  14.882  1.00  0.00     0.172 C 
HETATM   14  O   UNL     1      13.910   4.011  14.615  1.00  0.00    -0.648 OA
HETATM   15  O   UNL     1      15.928   3.280  15.355  1.00  0.00    -0.648 OA
ENDBRANCH  12  13
ENDBRANCH  11  12
ENDBRANCH  10  11
ENDBRANCH   9  10
ENDBRANCH   5   9
ENDBRANCH   1   3
TORSDOF 6
ENDMDL
MODEL 7
REMARK VINA RESULT:      -6.3      1.302      1.879
REMARK  6 active torsions:
REMARK  status: ('A' for Active; 'I' for Inactive)
REMARK    1  A    between atoms: O_1  and  C_11 
REMARK    2  A    between atoms: C_4  and  C_5 
REMARK    3  A    between atoms: C_4  and  C_6 
REMARK    4  A    between atoms: C_5  and  C_7 
REMARK    5  A    between atoms: C_6  and  C_8 
REMARK    6  A    between atoms: C_8  and  C_12 
ROOT
HETATM    1  O   UNL     1      19.119   4.893  11.364  1.00  0.00    -0.361 OA
HETATM    2  H   UNL     1      19.635   4.962  12.144  1.00  0.00     0.217 HD
ENDROOT
BRANCH   1   3
HETATM    3  C   UNL     1      18.136   5.800  11.117  1.00  0.00     0.066 A 
HETATM    4  C   UNL     1      16.923   5.720  11.802  1.00  0.00     0.043 A 
HETATM    5  C   UNL     1      15.930   6.651  11.539  1.00  0.00    -0.056 A 
HETATM    6  C   UNL     1      16.120   7.660  10.606  1.00  0.00     0.007 A 
HETATM    7  C   UNL     1      17.332   7.741   9.922  1.00  0.00     0.003 A 
HETATM    8  C   UNL     1      18.341   6.811  10.177  1.00  0.00     0.036 A 
BRANCH   5   9
HETATM    9  C   UNL     1      14.619   6.564  12.278  1.00  0.00     0.038 C 
BRANCH   9  10
HETATM   10  C   UNL     1      13.662   5.501  11.724  1.00  0.00     0.005 C 
BRANCH  10  11
HETATM   11  C   UNL     1      12.783   6.026  10.581  1.00  0.00     0.011 C 
BRANCH  11  12
HETATM   12  C   UNL     1      13.471   5.913   9.218  1.00  0.00     0.113 C 
BRANCH  12  13
HETATM   13  C   UNL     1      12.606   6.382   8.070  1.00  0.00     0.172 C 
HETATM   14  O   UNL     1      13.196   6.137   6.872  1.00  0.00    -0.648 OA
HETATM   15  O   UNL     1      11.502   6.898   8.177  1.00  0.00    -0.648 OA
ENDBRANCH  12  13
ENDBRANCH  11  12
ENDBRANCH  10  11
ENDBRANCH   9  10
ENDBRANCH   5   9
ENDBRANCH   1   3
TORSDOF 6
ENDMDL
MODEL 8
REMARK VINA RESULT:      -6.2      2.414      5.701
REMARK  6 active torsions:
REMARK  status: ('A' for Active; 'I' for Inactive)
REMARK    1  A    between atoms: O_1  and  C_11 
REMARK    2  A    between atoms: C_4  and  C_5 
REMARK    3  A    between atoms: C_4  and  C_6 
REMARK    4  A    between atoms: C_5  and  C_7 
REMARK    5  A    between atoms: C_6  and  C_8 
REMARK    6  A    between atoms: C_8  and  C_12 
ROOT
HETATM    1  O   UNL     1      11.106   4.969  10.856  1.00  0.00    -0.361 OA
HETATM    2  H   UNL     1      10.635   4.191  11.082  1.00  0.00     0.217 HD
ENDROOT
BRANCH   1   3
HETATM    3  C   UNL     1      12.307   5.230  11.438  1.00  0.00     0.066 A 
HETATM    4  C   UNL     1      13.312   5.867  10.709  1.00  0.00     0.043 A 
HETATM    5  C   UNL     1      14.532   6.126  11.316  1.00  0.00    -0.056 A 
HETATM    6  C   UNL     1      14.771   5.763  12.633  1.00  0.00     0.007 A 
HETATM    7  C   UNL     1      13.767   5.127  13.361  1.00  0.00     0.003 A 
HETATM    8  C   UNL     1      12.534   4.860  12.764  1.00  0.00     0.036 A 
BRANCH   5   9
HETATM    9  C   UNL     1      15.619   6.812  10.529  1.00  0.00     0.038 C 
BRANCH   9  10
HETATM   10  C   UNL     1      16.906   5.990  10.397  1.00  0.00     0.005 C 
BRANCH  10  11
HETATM   11  C   UNL     1      17.989   6.409  11.400  1.00  0.00     0.011 C 
BRANCH  11  12
HETATM   12  C   UNL     1      18.604   5.211  12.128  1.00  0.00     0.113 C 
BRANCH  12  13
HETATM   13  C   UNL     1      18.166   5.098  13.571  1.00  0.00     0.172 C 
HETATM   14  O   UNL     1      18.142   6.312  14.179  1.00  0.00    -0.648 OA
HETATM   15  O   UNL     1      17.847   4.062  14.137  1.00  0.00    -0.648 OA
ENDBRANCH  12  13
ENDBRANCH  11  12
ENDBRANCH  10  11
ENDBRANCH   9  10
ENDBRANCH   5   9
ENDBRANCH   1   3
TORSDOF 6
ENDMDL
MODEL 9
REMARK VINA RESULT:      -6.2      2.800      6.047
REMARK  6 active torsions:
REMARK  status: ('A' for Active; 'I' for Inactive)
REMARK    1  A    between atoms: O_1  and  C_11 
REMARK    2  A    between atoms: C_4  and  C_5 
REMARK    3  A    between atoms: C_4  and  C_6 
REMARK    4  A    between atoms: C_5  and  C_7 
REMARK    5  A    between atoms: C_6  and  C_8 
REMARK    6  A    between atoms: C_8  and  C_12 
ROOT
HETATM    1  O   UNL     1      11.010   4.965  11.233  1.00  0.00    -0.361 OA
HETATM    2  H   UNL     1      10.755   5.225  12.097  1.00  0.00     0.217 HD
ENDROOT
BRANCH   1   3
HETATM    3  C   UNL     1      12.214   5.354  10.733  1.00  0.00     0.066 A 
HETATM    4  C   UNL     1      13.268   5.647  11.598  1.00  0.00     0.043 A 
HETATM    5  C   UNL     1      14.489   6.043  11.073  1.00  0.00    -0.056 A 
HETATM    6  C   UNL     1      14.681   6.153   9.704  1.00  0.00     0.007 A 
HETATM    7  C   UNL     1      13.627   5.860   8.839  1.00  0.00     0.003 A 
HETATM    8  C   UNL     1      12.393   5.460   9.353  1.00  0.00     0.036 A 
BRANCH   5   9
HETATM    9  C   UNL     1      15.628   6.361  12.007  1.00  0.00     0.038 C 
BRANCH   9  10
HETATM   10  C   UNL     1      17.016   6.201  11.374  1.00  0.00     0.005 C 
BRANCH  10  11
HETATM   11  C   UNL     1      18.011   5.477  12.290  1.00  0.00     0.011 C 
BRANCH  11  12
HETATM   12  C   UNL     1      17.574   5.499  13.756  1.00  0.00     0.113 C 
BRANCH  12  13
HETATM   13  C   UNL     1      17.655   4.144  14.425  1.00  0.00     0.172 C 
HETATM   14  O   UNL     1      18.771   3.470  14.045  1.00  0.00    -0.648 OA
HETATM   15  O   UNL     1      16.845   3.698  15.225  1.00  0.00    -0.648 OA
ENDBRANCH  12  13
ENDBRANCH  11  12
ENDBRANCH  10  11
ENDBRANCH   9  10
ENDBRANCH   5   9
ENDBRANCH   1   3
TORSDOF 6
ENDMDL
