MODEL 1
REMARK VINA RESULT:      -8.5      0.000      0.000
REMARK  7 active torsions:
REMARK  status: ('A' for Active; 'I' for Inactive)
REMARK    1  A    between atoms: O_5  and  C_13 
REMARK    2  A    between atoms: O_5  and  C_14 
REMARK    3  A    between atoms: O_6  and  C_15 
REMARK    4  A    between atoms: O_6  and  C_22 
REMARK       I    between atoms: N_8  and  C_20 
REMARK    5  A    between atoms: N_8  and  C_21 
REMARK    6  A    between atoms: C_10  and  C_13 
REMARK    7  A    between atoms: C_17  and  C_20 
ROOT
ATOM      1 CL   UNL A   1     -48.646  47.102  13.050  1.00  0.00    -0.080 Cl
ATOM      2 CL   UNL A   1     -53.475  47.865  15.502  1.00  0.00    -0.080 Cl
ATOM      3  N   UNL A   1     -49.708  48.366  16.665  1.00  0.00    -0.270 NA
ATOM      4  C   UNL A   1     -51.011  47.515  14.363  1.00  0.00     0.081 A 
ATOM      5  C   UNL A   1     -49.630  47.556  14.388  1.00  0.00     0.080 A 
ATOM      6  C   UNL A   1     -51.753  47.891  15.467  1.00  0.00     0.080 A 
ATOM      7  C   UNL A   1     -49.027  47.987  15.559  1.00  0.00     0.142 A 
ATOM      8  C   UNL A   1     -51.056  48.308  16.590  1.00  0.00     0.142 A 
ENDROOT
BRANCH   4   9
ATOM      9  N   UNL A   1     -51.676  47.082  13.189  1.00  0.00    -0.320 N 
ATOM     10  C   UNL A   1     -52.064  45.783  12.834  1.00  0.00     0.256 C 
ATOM     11  O   UNL A   1     -51.874  44.768  13.525  1.00  0.00    -0.267 OA
ATOM     12  H   UNL A   1     -51.894  47.787  12.537  1.00  0.00     0.169 HD
BRANCH  10  13
ATOM     13  C   UNL A   1     -52.711  45.645  11.539  1.00  0.00     0.035 A 
ATOM     14  C   UNL A   1     -52.979  46.777  10.769  1.00  0.00     0.056 A 
ATOM     15  C   UNL A   1     -53.601  46.645   9.528  1.00  0.00     0.103 A 
ATOM     16  C   UNL A   1     -53.956  45.381   9.057  1.00  0.00     0.108 A 
ATOM     17  C   UNL A   1     -53.689  44.249   9.826  1.00  0.00     0.041 A 
ATOM     18  C   UNL A   1     -53.066  44.381  11.068  1.00  0.00     0.020 A 
BRANCH  15  19
ATOM     19  O   UNL A   1     -53.858  47.757   8.784  1.00  0.00    -0.348 OA
BRANCH  19  20
ATOM     20  C   UNL A   1     -53.089  48.922   9.075  1.00  0.00     0.180 C 
BRANCH  20  21
ATOM     21  C   UNL A   1     -53.936  49.909   9.804  1.00  0.00     0.010 A 
ATOM     22  C   UNL A   1     -54.142  51.268   9.211  1.00  0.00     0.007 A 
ATOM     23  C   UNL A   1     -55.270  50.280   9.237  1.00  0.00     0.007 A 
ENDBRANCH  20  21
ENDBRANCH  19  20
ENDBRANCH  15  19
BRANCH  16  24
ATOM     24  O   UNL A   1     -54.563  45.238   7.846  1.00  0.00    -0.287 OA
BRANCH  24  25
ATOM     25  C   UNL A   1     -54.121  44.172   7.014  1.00  0.00     0.505 C 
ATOM     26  F   UNL A   1     -54.926  44.145   5.920  1.00  0.00    -0.184 F 
ATOM     27  F   UNL A   1     -52.871  44.445   6.568  1.00  0.00    -0.184 F 
ENDBRANCH  24  25
ENDBRANCH  16  24
ENDBRANCH  10  13
ENDBRANCH   4   9
TORSDOF 7
ENDMDL
MODEL 2
REMARK VINA RESULT:      -8.5      4.213      6.920
REMARK  7 active torsions:
REMARK  status: ('A' for Active; 'I' for Inactive)
REMARK    1  A    between atoms: O_5  and  C_13 
REMARK    2  A    between atoms: O_5  and  C_14 
REMARK    3  A    between atoms: O_6  and  C_15 
REMARK    4  A    between atoms: O_6  and  C_22 
REMARK       I    between atoms: N_8  and  C_20 
REMARK    5  A    between atoms: N_8  and  C_21 
REMARK    6  A    between atoms: C_10  and  C_13 
REMARK    7  A    between atoms: C_17  and  C_20 
ROOT
ATOM      1 CL   UNL A   1     -52.102  41.359  11.605  1.00  0.00    -0.080 Cl
ATOM      2 CL   UNL A   1     -50.994  43.073   6.531  1.00  0.00    -0.080 Cl
ATOM      3  N   UNL A   1     -50.512  39.605   8.412  1.00  0.00    -0.270 NA
ATOM      4  C   UNL A   1     -51.510  42.121   9.044  1.00  0.00     0.081 A 
ATOM      5  C   UNL A   1     -51.509  41.127  10.005  1.00  0.00     0.080 A 
ATOM      6  C   UNL A   1     -51.021  41.881   7.774  1.00  0.00     0.080 A 
ATOM      7  C   UNL A   1     -51.000  39.891   9.641  1.00  0.00     0.142 A 
ATOM      8  C   UNL A   1     -50.535  40.611   7.509  1.00  0.00     0.142 A 
ENDROOT
BRANCH   4   9
ATOM      9  N   UNL A   1     -52.020  43.403   9.366  1.00  0.00    -0.320 N 
ATOM     10  C   UNL A   1     -53.238  43.981   8.981  1.00  0.00     0.256 C 
ATOM     11  O   UNL A   1     -54.093  43.431   8.267  1.00  0.00    -0.267 OA
ATOM     12  H   UNL A   1     -51.442  43.962   9.935  1.00  0.00     0.169 HD
BRANCH  10  13
ATOM     13  C   UNL A   1     -53.474  45.337   9.450  1.00  0.00     0.035 A 
ATOM     14  C   UNL A   1     -52.720  45.851  10.505  1.00  0.00     0.056 A 
ATOM     15  C   UNL A   1     -52.947  47.152  10.954  1.00  0.00     0.103 A 
ATOM     16  C   UNL A   1     -53.928  47.938  10.349  1.00  0.00     0.108 A 
ATOM     17  C   UNL A   1     -54.682  47.424   9.294  1.00  0.00     0.041 A 
ATOM     18  C   UNL A   1     -54.454  46.123   8.845  1.00  0.00     0.020 A 
BRANCH  15  19
ATOM     19  O   UNL A   1     -52.206  47.644  11.985  1.00  0.00    -0.348 OA
BRANCH  19  20
ATOM     20  C   UNL A   1     -51.131  46.833  12.455  1.00  0.00     0.180 C 
BRANCH  20  21
ATOM     21  C   UNL A   1     -51.306  46.569  13.912  1.00  0.00     0.010 A 
ATOM     22  C   UNL A   1     -52.560  47.029  14.588  1.00  0.00     0.007 A 
ATOM     23  C   UNL A   1     -52.326  45.567  14.351  1.00  0.00     0.007 A 
ENDBRANCH  20  21
ENDBRANCH  19  20
ENDBRANCH  15  19
BRANCH  16  24
ATOM     24  O   UNL A   1     -54.159  49.210  10.779  1.00  0.00    -0.287 OA
BRANCH  24  25
ATOM     25  C   UNL A   1     -54.158  50.241   9.799  1.00  0.00     0.505 C 
ATOM     26  F   UNL A   1     -55.443  50.428   9.400  1.00  0.00    -0.184 F 
ATOM     27  F   UNL A   1     -53.760  51.401  10.374  1.00  0.00    -0.184 F 
ENDBRANCH  24  25
ENDBRANCH  16  24
ENDBRANCH  10  13
ENDBRANCH   4   9
TORSDOF 7
ENDMDL
MODEL 3
REMARK VINA RESULT:      -8.5      0.128      1.779
REMARK  7 active torsions:
REMARK  status: ('A' for Active; 'I' for Inactive)
REMARK    1  A    between atoms: O_5  and  C_13 
REMARK    2  A    between atoms: O_5  and  C_14 
REMARK    3  A    between atoms: O_6  and  C_15 
REMARK    4  A    between atoms: O_6  and  C_22 
REMARK       I    between atoms: N_8  and  C_20 
REMARK    5  A    between atoms: N_8  and  C_21 
REMARK    6  A    between atoms: C_10  and  C_13 
REMARK    7  A    between atoms: C_17  and  C_20 
ROOT
ATOM      1 CL   UNL A   1     -53.590  47.725  15.583  1.00  0.00    -0.080 Cl
ATOM      2 CL   UNL A   1     -48.740  47.249  13.100  1.00  0.00    -0.080 Cl
ATOM      3  N   UNL A   1     -49.845  48.358  16.753  1.00  0.00    -0.270 NA
ATOM      4  C   UNL A   1     -51.117  47.518  14.429  1.00  0.00     0.081 A 
ATOM      5  C   UNL A   1     -51.872  47.829  15.545  1.00  0.00     0.080 A 
ATOM      6  C   UNL A   1     -49.739  47.620  14.453  1.00  0.00     0.080 A 
ATOM      7  C   UNL A   1     -51.190  48.243  16.678  1.00  0.00     0.142 A 
ATOM      8  C   UNL A   1     -49.153  48.043  15.635  1.00  0.00     0.142 A 
ENDROOT
BRANCH   4   9
ATOM      9  N   UNL A   1     -51.766  47.089  13.244  1.00  0.00    -0.320 N 
ATOM     10  C   UNL A   1     -52.068  45.782  12.839  1.00  0.00     0.256 C 
ATOM     11  O   UNL A   1     -51.803  44.756  13.486  1.00  0.00    -0.267 OA
ATOM     12  H   UNL A   1     -52.039  47.804  12.624  1.00  0.00     0.169 HD
BRANCH  10  13
ATOM     13  C   UNL A   1     -52.721  45.654  11.545  1.00  0.00     0.035 A 
ATOM     14  C   UNL A   1     -52.919  46.782  10.749  1.00  0.00     0.056 A 
ATOM     15  C   UNL A   1     -53.546  46.658   9.509  1.00  0.00     0.103 A 
ATOM     16  C   UNL A   1     -53.975  45.407   9.066  1.00  0.00     0.108 A 
ATOM     17  C   UNL A   1     -53.777  44.279   9.863  1.00  0.00     0.041 A 
ATOM     18  C   UNL A   1     -53.150  44.403  11.103  1.00  0.00     0.020 A 
BRANCH  15  19
ATOM     19  O   UNL A   1     -53.734  47.765   8.740  1.00  0.00    -0.348 OA
BRANCH  19  20
ATOM     20  C   UNL A   1     -53.016  48.941   9.109  1.00  0.00     0.180 C 
BRANCH  20  21
ATOM     21  C   UNL A   1     -53.927  49.875   9.829  1.00  0.00     0.010 A 
ATOM     22  C   UNL A   1     -54.330  51.155   9.164  1.00  0.00     0.007 A 
ATOM     23  C   UNL A   1     -55.329  50.049   9.335  1.00  0.00     0.007 A 
ENDBRANCH  20  21
ENDBRANCH  19  20
ENDBRANCH  15  19
BRANCH  16  24
ATOM     24  O   UNL A   1     -54.587  45.273   7.857  1.00  0.00    -0.287 OA
BRANCH  24  25
ATOM     25  C   UNL A   1     -54.171  44.193   7.029  1.00  0.00     0.505 C 
ATOM     26  F   UNL A   1     -54.924  44.229   5.899  1.00  0.00    -0.184 F 
ATOM     27  F   UNL A   1     -52.887  44.398   6.644  1.00  0.00    -0.184 F 
ENDBRANCH  24  25
ENDBRANCH  16  24
ENDBRANCH  10  13
ENDBRANCH   4   9
TORSDOF 7
ENDMDL
MODEL 4
REMARK VINA RESULT:      -8.4      4.155      6.780
REMARK  7 active torsions:
REMARK  status: ('A' for Active; 'I' for Inactive)
REMARK    1  A    between atoms: O_5  and  C_13 
REMARK    2  A    between atoms: O_5  and  C_14 
REMARK    3  A    between atoms: O_6  and  C_15 
REMARK    4  A    between atoms: O_6  and  C_22 
REMARK       I    between atoms: N_8  and  C_20 
REMARK    5  A    between atoms: N_8  and  C_21 
REMARK    6  A    between atoms: C_10  and  C_13 
REMARK    7  A    between atoms: C_17  and  C_20 
ROOT
ATOM      1 CL   UNL A   1     -50.990  43.069   6.594  1.00  0.00    -0.080 Cl
ATOM      2 CL   UNL A   1     -52.161  41.352  11.653  1.00  0.00    -0.080 Cl
ATOM      3  N   UNL A   1     -50.551  39.595   8.472  1.00  0.00    -0.270 NA
ATOM      4  C   UNL A   1     -51.539  42.116   9.099  1.00  0.00     0.081 A 
ATOM      5  C   UNL A   1     -51.039  41.875   7.833  1.00  0.00     0.080 A 
ATOM      6  C   UNL A   1     -51.554  41.119  10.058  1.00  0.00     0.080 A 
ATOM      7  C   UNL A   1     -50.559  40.602   7.570  1.00  0.00     0.142 A 
ATOM      8  C   UNL A   1     -51.050  39.880   9.696  1.00  0.00     0.142 A 
ENDROOT
BRANCH   4   9
ATOM      9  N   UNL A   1     -52.041  43.401   9.420  1.00  0.00    -0.320 N 
ATOM     10  C   UNL A   1     -53.249  43.990   9.022  1.00  0.00     0.256 C 
ATOM     11  O   UNL A   1     -54.101  43.450   8.296  1.00  0.00    -0.267 OA
ATOM     12  H   UNL A   1     -51.466  43.953   9.998  1.00  0.00     0.169 HD
BRANCH  10  13
ATOM     13  C   UNL A   1     -53.480  45.347   9.493  1.00  0.00     0.035 A 
ATOM     14  C   UNL A   1     -52.717  45.859  10.542  1.00  0.00     0.056 A 
ATOM     15  C   UNL A   1     -52.939  47.160  10.994  1.00  0.00     0.103 A 
ATOM     16  C   UNL A   1     -53.923  47.948  10.397  1.00  0.00     0.108 A 
ATOM     17  C   UNL A   1     -54.686  47.435   9.348  1.00  0.00     0.041 A 
ATOM     18  C   UNL A   1     -54.464  46.134   8.896  1.00  0.00     0.020 A 
BRANCH  15  19
ATOM     19  O   UNL A   1     -52.189  47.651  12.019  1.00  0.00    -0.348 OA
BRANCH  19  20
ATOM     20  C   UNL A   1     -51.163  46.804  12.535  1.00  0.00     0.180 C 
BRANCH  20  21
ATOM     21  C   UNL A   1     -51.302  46.698  14.014  1.00  0.00     0.010 A 
ATOM     22  C   UNL A   1     -52.599  47.085  14.653  1.00  0.00     0.007 A 
ATOM     23  C   UNL A   1     -52.195  45.642  14.587  1.00  0.00     0.007 A 
ENDBRANCH  20  21
ENDBRANCH  19  20
ENDBRANCH  15  19
BRANCH  16  24
ATOM     24  O   UNL A   1     -54.149  49.220  10.829  1.00  0.00    -0.287 OA
BRANCH  24  25
ATOM     25  C   UNL A   1     -54.206  50.244   9.844  1.00  0.00     0.505 C 
ATOM     26  F   UNL A   1     -54.022  51.432  10.476  1.00  0.00    -0.184 F 
ATOM     27  F   UNL A   1     -53.166  50.096   8.988  1.00  0.00    -0.184 F 
ENDBRANCH  24  25
ENDBRANCH  16  24
ENDBRANCH  10  13
ENDBRANCH   4   9
TORSDOF 7
ENDMDL
MODEL 5
REMARK VINA RESULT:      -8.4      4.531      7.515
REMARK  7 active torsions:
REMARK  status: ('A' for Active; 'I' for Inactive)
REMARK    1  A    between atoms: O_5  and  C_13 
REMARK    2  A    between atoms: O_5  and  C_14 
REMARK    3  A    between atoms: O_6  and  C_15 
REMARK    4  A    between atoms: O_6  and  C_22 
REMARK       I    between atoms: N_8  and  C_20 
REMARK    5  A    between atoms: N_8  and  C_21 
REMARK    6  A    between atoms: C_10  and  C_13 
REMARK    7  A    between atoms: C_17  and  C_20 
ROOT
ATOM      1 CL   UNL A   1     -55.676  44.739   6.851  1.00  0.00    -0.080 Cl
ATOM      2 CL   UNL A   1     -50.534  42.877   6.914  1.00  0.00    -0.080 Cl
ATOM      3  N   UNL A   1     -53.575  42.427   4.395  1.00  0.00    -0.270 NA
ATOM      4  C   UNL A   1     -53.122  43.758   6.793  1.00  0.00     0.081 A 
ATOM      5  C   UNL A   1     -54.364  43.841   6.190  1.00  0.00     0.080 A 
ATOM      6  C   UNL A   1     -52.103  43.021   6.218  1.00  0.00     0.080 A 
ATOM      7  C   UNL A   1     -54.539  43.159   4.997  1.00  0.00     0.142 A 
ATOM      8  C   UNL A   1     -52.379  42.376   5.023  1.00  0.00     0.142 A 
ENDROOT
BRANCH   4   9
ATOM      9  N   UNL A   1     -52.891  44.437   8.014  1.00  0.00    -0.320 N 
ATOM     10  C   UNL A   1     -53.239  44.041   9.313  1.00  0.00     0.256 C 
ATOM     11  O   UNL A   1     -53.829  42.987   9.603  1.00  0.00    -0.267 OA
ATOM     12  H   UNL A   1     -52.424  45.301   7.941  1.00  0.00     0.169 HD
BRANCH  10  13
ATOM     13  C   UNL A   1     -52.889  44.970  10.375  1.00  0.00     0.035 A 
ATOM     14  C   UNL A   1     -53.277  46.307  10.288  1.00  0.00     0.056 A 
ATOM     15  C   UNL A   1     -52.940  47.199  11.307  1.00  0.00     0.103 A 
ATOM     16  C   UNL A   1     -52.216  46.753  12.412  1.00  0.00     0.108 A 
ATOM     17  C   UNL A   1     -51.828  45.416  12.500  1.00  0.00     0.041 A 
ATOM     18  C   UNL A   1     -52.164  44.525  11.481  1.00  0.00     0.020 A 
BRANCH  15  19
ATOM     19  O   UNL A   1     -53.324  48.502  11.211  1.00  0.00    -0.348 OA
BRANCH  19  20
ATOM     20  C   UNL A   1     -53.696  48.975   9.918  1.00  0.00     0.180 C 
BRANCH  20  21
ATOM     21  C   UNL A   1     -54.570  50.173  10.058  1.00  0.00     0.010 A 
ATOM     22  C   UNL A   1     -53.936  51.525  10.177  1.00  0.00     0.007 A 
ATOM     23  C   UNL A   1     -54.661  51.143   8.921  1.00  0.00     0.007 A 
ENDBRANCH  20  21
ENDBRANCH  19  20
ENDBRANCH  15  19
BRANCH  16  24
ATOM     24  O   UNL A   1     -51.882  47.614  13.414  1.00  0.00    -0.287 OA
BRANCH  24  25
ATOM     25  C   UNL A   1     -52.159  47.204  14.747  1.00  0.00     0.505 C 
ATOM     26  F   UNL A   1     -51.121  47.609  15.525  1.00  0.00    -0.184 F 
ATOM     27  F   UNL A   1     -53.257  47.861  15.196  1.00  0.00    -0.184 F 
ENDBRANCH  24  25
ENDBRANCH  16  24
ENDBRANCH  10  13
ENDBRANCH   4   9
TORSDOF 7
ENDMDL
MODEL 6
REMARK VINA RESULT:      -8.3      4.318      7.230
REMARK  7 active torsions:
REMARK  status: ('A' for Active; 'I' for Inactive)
REMARK    1  A    between atoms: O_5  and  C_13 
REMARK    2  A    between atoms: O_5  and  C_14 
REMARK    3  A    between atoms: O_6  and  C_15 
REMARK    4  A    between atoms: O_6  and  C_22 
REMARK       I    between atoms: N_8  and  C_20 
REMARK    5  A    between atoms: N_8  and  C_21 
REMARK    6  A    between atoms: C_10  and  C_13 
REMARK    7  A    between atoms: C_17  and  C_20 
ROOT
ATOM      1 CL   UNL A   1     -50.821  42.693   7.117  1.00  0.00    -0.080 Cl
ATOM      2 CL   UNL A   1     -55.818  44.907   6.922  1.00  0.00    -0.080 Cl
ATOM      3  N   UNL A   1     -53.816  42.457   4.516  1.00  0.00    -0.270 NA
ATOM      4  C   UNL A   1     -53.337  43.751   6.929  1.00  0.00     0.081 A 
ATOM      5  C   UNL A   1     -52.356  42.947   6.380  1.00  0.00     0.080 A 
ATOM      6  C   UNL A   1     -54.553  43.921   6.294  1.00  0.00     0.080 A 
ATOM      7  C   UNL A   1     -52.643  42.324   5.176  1.00  0.00     0.142 A 
ATOM      8  C   UNL A   1     -54.743  43.254   5.094  1.00  0.00     0.142 A 
ENDROOT
BRANCH   4   9
ATOM      9  N   UNL A   1     -53.093  44.410   8.159  1.00  0.00    -0.320 N 
ATOM     10  C   UNL A   1     -53.290  43.930   9.461  1.00  0.00     0.256 C 
ATOM     11  O   UNL A   1     -53.727  42.803   9.746  1.00  0.00    -0.267 OA
ATOM     12  H   UNL A   1     -52.739  45.327   8.090  1.00  0.00     0.169 HD
BRANCH  10  13
ATOM     13  C   UNL A   1     -52.971  44.858  10.535  1.00  0.00     0.035 A 
ATOM     14  C   UNL A   1     -53.170  46.226  10.356  1.00  0.00     0.056 A 
ATOM     15  C   UNL A   1     -52.863  47.116  11.386  1.00  0.00     0.103 A 
ATOM     16  C   UNL A   1     -52.357  46.636  12.594  1.00  0.00     0.108 A 
ATOM     17  C   UNL A   1     -52.159  45.267  12.773  1.00  0.00     0.041 A 
ATOM     18  C   UNL A   1     -52.466  44.378  11.743  1.00  0.00     0.020 A 
BRANCH  15  19
ATOM     19  O   UNL A   1     -53.060  48.450  11.200  1.00  0.00    -0.348 OA
BRANCH  19  20
ATOM     20  C   UNL A   1     -53.607  48.856   9.947  1.00  0.00     0.180 C 
BRANCH  20  21
ATOM     21  C   UNL A   1     -54.533  50.005  10.157  1.00  0.00     0.010 A 
ATOM     22  C   UNL A   1     -54.014  51.398   9.985  1.00  0.00     0.007 A 
ATOM     23  C   UNL A   1     -54.960  50.819   8.975  1.00  0.00     0.007 A 
ENDBRANCH  20  21
ENDBRANCH  19  20
ENDBRANCH  15  19
BRANCH  16  24
ATOM     24  O   UNL A   1     -52.055  47.494  13.608  1.00  0.00    -0.287 OA
BRANCH  24  25
ATOM     25  C   UNL A   1     -50.738  47.437  14.142  1.00  0.00     0.505 C 
ATOM     26  F   UNL A   1     -49.877  47.324  13.097  1.00  0.00    -0.184 F 
ATOM     27  F   UNL A   1     -50.453  48.614  14.750  1.00  0.00    -0.184 F 
ENDBRANCH  24  25
ENDBRANCH  16  24
ENDBRANCH  10  13
ENDBRANCH   4   9
TORSDOF 7
ENDMDL
MODEL 7
REMARK VINA RESULT:      -8.3      1.785      3.887
REMARK  7 active torsions:
REMARK  status: ('A' for Active; 'I' for Inactive)
REMARK    1  A    between atoms: O_5  and  C_13 
REMARK    2  A    between atoms: O_5  and  C_14 
REMARK    3  A    between atoms: O_6  and  C_15 
REMARK    4  A    between atoms: O_6  and  C_22 
REMARK       I    between atoms: N_8  and  C_20 
REMARK    5  A    between atoms: N_8  and  C_21 
REMARK    6  A    between atoms: C_10  and  C_13 
REMARK    7  A    between atoms: C_17  and  C_20 
ROOT
ATOM      1 CL   UNL A   1     -53.113  48.180  15.976  1.00  0.00    -0.080 Cl
ATOM      2 CL   UNL A   1     -48.542  47.088  13.179  1.00  0.00    -0.080 Cl
ATOM      3  N   UNL A   1     -49.261  48.113  16.951  1.00  0.00    -0.270 NA
ATOM      4  C   UNL A   1     -50.771  47.652  14.663  1.00  0.00     0.081 A 
ATOM      5  C   UNL A   1     -51.405  48.005  15.839  1.00  0.00     0.080 A 
ATOM      6  C   UNL A   1     -49.395  47.525  14.609  1.00  0.00     0.080 A 
ATOM      7  C   UNL A   1     -50.608  48.225  16.952  1.00  0.00     0.142 A 
ATOM      8  C   UNL A   1     -48.688  47.766  15.777  1.00  0.00     0.142 A 
ENDROOT
BRANCH   4   9
ATOM      9  N   UNL A   1     -51.540  47.415  13.498  1.00  0.00    -0.320 N 
ATOM     10  C   UNL A   1     -51.896  46.189  12.920  1.00  0.00     0.256 C 
ATOM     11  O   UNL A   1     -51.576  45.073  13.363  1.00  0.00    -0.267 OA
ATOM     12  H   UNL A   1     -51.868  48.219  13.032  1.00  0.00     0.169 HD
BRANCH  10  13
ATOM     13  C   UNL A   1     -52.678  46.266  11.696  1.00  0.00     0.035 A 
ATOM     14  C   UNL A   1     -53.043  45.098  11.027  1.00  0.00     0.056 A 
ATOM     15  C   UNL A   1     -53.792  45.174   9.852  1.00  0.00     0.103 A 
ATOM     16  C   UNL A   1     -54.175  46.416   9.348  1.00  0.00     0.108 A 
ATOM     17  C   UNL A   1     -53.810  47.584  10.017  1.00  0.00     0.041 A 
ATOM     18  C   UNL A   1     -53.061  47.509  11.191  1.00  0.00     0.020 A 
BRANCH  15  19
ATOM     19  O   UNL A   1     -54.143  44.027   9.207  1.00  0.00    -0.348 OA
BRANCH  19  20
ATOM     20  C   UNL A   1     -53.083  43.202   8.729  1.00  0.00     0.180 C 
BRANCH  20  21
ATOM     21  C   UNL A   1     -53.262  42.955   7.270  1.00  0.00     0.010 A 
ATOM     22  C   UNL A   1     -54.306  43.727   6.525  1.00  0.00     0.007 A 
ATOM     23  C   UNL A   1     -52.852  44.017   6.298  1.00  0.00     0.007 A 
ENDBRANCH  20  21
ENDBRANCH  19  20
ENDBRANCH  15  19
BRANCH  16  24
ATOM     24  O   UNL A   1     -54.908  46.502   8.202  1.00  0.00    -0.287 OA
BRANCH  24  25
ATOM     25  C   UNL A   1     -56.318  46.631   8.337  1.00  0.00     0.505 C 
ATOM     26  F   UNL A   1     -56.753  45.592   9.097  1.00  0.00    -0.184 F 
ATOM     27  F   UNL A   1     -56.598  47.761   9.031  1.00  0.00    -0.184 F 
ENDBRANCH  24  25
ENDBRANCH  16  24
ENDBRANCH  10  13
ENDBRANCH   4   9
TORSDOF 7
ENDMDL
MODEL 8
REMARK VINA RESULT:      -8.0      1.692      2.438
REMARK  7 active torsions:
REMARK  status: ('A' for Active; 'I' for Inactive)
REMARK    1  A    between atoms: O_5  and  C_13 
REMARK    2  A    between atoms: O_5  and  C_14 
REMARK    3  A    between atoms: O_6  and  C_15 
REMARK    4  A    between atoms: O_6  and  C_22 
REMARK       I    between atoms: N_8  and  C_20 
REMARK    5  A    between atoms: N_8  and  C_21 
REMARK    6  A    between atoms: C_10  and  C_13 
REMARK    7  A    between atoms: C_17  and  C_20 
ROOT
ATOM      1 CL   UNL A   1     -53.262  47.538  15.792  1.00  0.00    -0.080 Cl
ATOM      2 CL   UNL A   1     -49.485  43.813  14.461  1.00  0.00    -0.080 Cl
ATOM      3  N   UNL A   1     -50.157  45.981  17.723  1.00  0.00    -0.270 NA
ATOM      4  C   UNL A   1     -51.329  45.687  15.220  1.00  0.00     0.081 A 
ATOM      5  C   UNL A   1     -51.872  46.578  16.127  1.00  0.00     0.080 A 
ATOM      6  C   UNL A   1     -50.211  44.940  15.542  1.00  0.00     0.080 A 
ATOM      7  C   UNL A   1     -51.251  46.689  17.360  1.00  0.00     0.142 A 
ATOM      8  C   UNL A   1     -49.664  45.123  16.802  1.00  0.00     0.142 A 
ENDROOT
BRANCH   4   9
ATOM      9  N   UNL A   1     -51.927  45.536  13.945  1.00  0.00    -0.320 N 
ATOM     10  C   UNL A   1     -51.953  46.446  12.879  1.00  0.00     0.256 C 
ATOM     11  O   UNL A   1     -51.433  47.574  12.892  1.00  0.00    -0.267 OA
ATOM     12  H   UNL A   1     -52.385  44.678  13.787  1.00  0.00     0.169 HD
BRANCH  10  13
ATOM     13  C   UNL A   1     -52.675  46.014  11.693  1.00  0.00     0.035 A 
ATOM     14  C   UNL A   1     -53.071  46.951  10.738  1.00  0.00     0.056 A 
ATOM     15  C   UNL A   1     -53.765  46.536   9.601  1.00  0.00     0.103 A 
ATOM     16  C   UNL A   1     -54.062  45.186   9.419  1.00  0.00     0.108 A 
ATOM     17  C   UNL A   1     -53.666  44.249  10.374  1.00  0.00     0.041 A 
ATOM     18  C   UNL A   1     -52.973  44.664  11.511  1.00  0.00     0.020 A 
BRANCH  15  19
ATOM     19  O   UNL A   1     -54.147  47.459   8.675  1.00  0.00    -0.348 OA
BRANCH  19  20
ATOM     20  C   UNL A   1     -55.395  48.114   8.890  1.00  0.00     0.180 C 
BRANCH  20  21
ATOM     21  C   UNL A   1     -55.167  49.575   9.072  1.00  0.00     0.010 A 
ATOM     22  C   UNL A   1     -54.811  50.091  10.432  1.00  0.00     0.007 A 
ATOM     23  C   UNL A   1     -53.779  50.066   9.343  1.00  0.00     0.007 A 
ENDBRANCH  20  21
ENDBRANCH  19  20
ENDBRANCH  15  19
BRANCH  16  24
ATOM     24  O   UNL A   1     -54.737  44.768   8.312  1.00  0.00    -0.287 OA
BRANCH  24  25
ATOM     25  C   UNL A   1     -53.973  44.202   7.255  1.00  0.00     0.505 C 
ATOM     26  F   UNL A   1     -52.731  44.752   7.307  1.00  0.00    -0.184 F 
ATOM     27  F   UNL A   1     -53.816  42.875   7.481  1.00  0.00    -0.184 F 
ENDBRANCH  24  25
ENDBRANCH  16  24
ENDBRANCH  10  13
ENDBRANCH   4   9
TORSDOF 7
ENDMDL
MODEL 9
REMARK VINA RESULT:      -7.9      4.544      6.952
REMARK  7 active torsions:
REMARK  status: ('A' for Active; 'I' for Inactive)
REMARK    1  A    between atoms: O_5  and  C_13 
REMARK    2  A    between atoms: O_5  and  C_14 
REMARK    3  A    between atoms: O_6  and  C_15 
REMARK    4  A    between atoms: O_6  and  C_22 
REMARK       I    between atoms: N_8  and  C_20 
REMARK    5  A    between atoms: N_8  and  C_21 
REMARK    6  A    between atoms: C_10  and  C_13 
REMARK    7  A    between atoms: C_17  and  C_20 
ROOT
ATOM      1 CL   UNL A   1     -48.507  42.561   9.065  1.00  0.00    -0.080 Cl
ATOM      2 CL   UNL A   1     -53.234  44.194   6.852  1.00  0.00    -0.080 Cl
ATOM      3  N   UNL A   1     -50.274  41.870   5.573  1.00  0.00    -0.270 NA
ATOM      4  C   UNL A   1     -50.849  43.323   7.872  1.00  0.00     0.081 A 
ATOM      5  C   UNL A   1     -49.669  42.607   7.795  1.00  0.00     0.080 A 
ATOM      6  C   UNL A   1     -51.747  43.326   6.821  1.00  0.00     0.080 A 
ATOM      7  C   UNL A   1     -49.428  41.900   6.628  1.00  0.00     0.142 A 
ATOM      8  C   UNL A   1     -51.414  42.586   5.698  1.00  0.00     0.142 A 
ENDROOT
BRANCH   4   9
ATOM      9  N   UNL A   1     -51.142  44.062   9.044  1.00  0.00    -0.320 N 
ATOM     10  C   UNL A   1     -51.715  43.611  10.241  1.00  0.00     0.256 C 
ATOM     11  O   UNL A   1     -52.069  42.441  10.466  1.00  0.00    -0.267 OA
ATOM     12  H   UNL A   1     -50.913  45.019   9.014  1.00  0.00     0.169 HD
BRANCH  10  13
ATOM     13  C   UNL A   1     -51.921  44.621  11.268  1.00  0.00     0.035 A 
ATOM     14  C   UNL A   1     -52.327  45.906  10.909  1.00  0.00     0.056 A 
ATOM     15  C   UNL A   1     -52.522  46.875  11.894  1.00  0.00     0.103 A 
ATOM     16  C   UNL A   1     -52.312  46.558  13.236  1.00  0.00     0.108 A 
ATOM     17  C   UNL A   1     -51.906  45.272  13.594  1.00  0.00     0.041 A 
ATOM     18  C   UNL A   1     -51.711  44.304  12.609  1.00  0.00     0.020 A 
BRANCH  15  19
ATOM     19  O   UNL A   1     -52.918  48.127  11.533  1.00  0.00    -0.348 OA
BRANCH  19  20
ATOM     20  C   UNL A   1     -53.397  48.296  10.201  1.00  0.00     0.180 C 
BRANCH  20  21
ATOM     21  C   UNL A   1     -54.578  49.206  10.207  1.00  0.00     0.010 A 
ATOM     22  C   UNL A   1     -54.500  50.503   9.464  1.00  0.00     0.007 A 
ATOM     23  C   UNL A   1     -55.360  49.390   8.944  1.00  0.00     0.007 A 
ENDBRANCH  20  21
ENDBRANCH  19  20
ENDBRANCH  15  19
BRANCH  16  24
ATOM     24  O   UNL A   1     -52.501  47.495  14.207  1.00  0.00    -0.287 OA
BRANCH  24  25
ATOM     25  C   UNL A   1     -51.468  47.654  15.171  1.00  0.00     0.505 C 
ATOM     26  F   UNL A   1     -50.364  48.103  14.519  1.00  0.00    -0.184 F 
ATOM     27  F   UNL A   1     -51.822  48.627  16.045  1.00  0.00    -0.184 F 
ENDBRANCH  24  25
ENDBRANCH  16  24
ENDBRANCH  10  13
ENDBRANCH   4   9
TORSDOF 7
ENDMDL
