MODEL 1
REMARK VINA RESULT:      -8.6      0.000      0.000
REMARK  7 active torsions:
REMARK  status: ('A' for Active; 'I' for Inactive)
REMARK    1  A    between atoms: O_5  and  C_13 
REMARK    2  A    between atoms: O_5  and  C_14 
REMARK    3  A    between atoms: O_6  and  C_15 
REMARK    4  A    between atoms: O_6  and  C_22 
REMARK       I    between atoms: N_8  and  C_20 
REMARK    5  A    between atoms: N_8  and  C_21 
REMARK    6  A    between atoms: C_10  and  C_13 
REMARK    7  A    between atoms: C_17  and  C_20 
ROOT
ATOM      1 CL   UNL A   1     -51.022  43.078   6.584  1.00  0.00    -0.080 Cl
ATOM      2 CL   UNL A   1     -52.200  41.398  11.654  1.00  0.00    -0.080 Cl
ATOM      3  N   UNL A   1     -50.578  39.620   8.491  1.00  0.00    -0.270 NA
ATOM      4  C   UNL A   1     -51.573  42.143   9.096  1.00  0.00     0.081 A 
ATOM      5  C   UNL A   1     -51.070  41.894   7.833  1.00  0.00     0.080 A 
ATOM      6  C   UNL A   1     -51.589  41.154  10.062  1.00  0.00     0.080 A 
ATOM      7  C   UNL A   1     -50.586  40.620   7.581  1.00  0.00     0.142 A 
ATOM      8  C   UNL A   1     -51.081  39.914   9.711  1.00  0.00     0.142 A 
ENDROOT
BRANCH   4   9
ATOM      9  N   UNL A   1     -52.080  43.430   9.405  1.00  0.00    -0.320 N 
ATOM     10  C   UNL A   1     -53.269  44.028   8.966  1.00  0.00     0.256 C 
ATOM     11  O   UNL A   1     -54.096  43.498   8.205  1.00  0.00    -0.267 OA
ATOM     12  H   UNL A   1     -51.524  43.974  10.007  1.00  0.00     0.169 HD
BRANCH  10  13
ATOM     13  C   UNL A   1     -53.509  45.384   9.436  1.00  0.00     0.035 A 
ATOM     14  C   UNL A   1     -52.741  45.907  10.476  1.00  0.00     0.056 A 
ATOM     15  C   UNL A   1     -52.972  47.206  10.927  1.00  0.00     0.103 A 
ATOM     16  C   UNL A   1     -53.970  47.982  10.339  1.00  0.00     0.108 A 
ATOM     17  C   UNL A   1     -54.738  47.459   9.298  1.00  0.00     0.041 A 
ATOM     18  C   UNL A   1     -54.507  46.159   8.847  1.00  0.00     0.020 A 
BRANCH  15  19
ATOM     19  O   UNL A   1     -52.217  47.707  11.944  1.00  0.00    -0.348 OA
BRANCH  19  20
ATOM     20  C   UNL A   1     -51.242  46.837  12.517  1.00  0.00     0.180 C 
BRANCH  20  21
ATOM     21  C   UNL A   1     -51.401  46.817  13.998  1.00  0.00     0.010 A 
ATOM     22  C   UNL A   1     -52.774  46.942  14.584  1.00  0.00     0.007 A 
ATOM     23  C   UNL A   1     -52.047  45.631  14.644  1.00  0.00     0.007 A 
ENDBRANCH  20  21
ENDBRANCH  19  20
ENDBRANCH  15  19
BRANCH  16  24
ATOM     24  O   UNL A   1     -54.205  49.253  10.770  1.00  0.00    -0.287 OA
BRANCH  24  25
ATOM     25  C   UNL A   1     -54.157  50.291   9.799  1.00  0.00     0.505 C 
ATOM     26  F   UNL A   1     -55.428  50.513   9.373  1.00  0.00    -0.184 F 
ATOM     27  F   UNL A   1     -53.744  51.437  10.394  1.00  0.00    -0.184 F 
ENDBRANCH  24  25
ENDBRANCH  16  24
ENDBRANCH  10  13
ENDBRANCH   4   9
TORSDOF 7
ENDMDL
MODEL 2
REMARK VINA RESULT:      -8.5      0.102      1.778
REMARK  7 active torsions:
REMARK  status: ('A' for Active; 'I' for Inactive)
REMARK    1  A    between atoms: O_5  and  C_13 
REMARK    2  A    between atoms: O_5  and  C_14 
REMARK    3  A    between atoms: O_6  and  C_15 
REMARK    4  A    between atoms: O_6  and  C_22 
REMARK       I    between atoms: N_8  and  C_20 
REMARK    5  A    between atoms: N_8  and  C_21 
REMARK    6  A    between atoms: C_10  and  C_13 
REMARK    7  A    between atoms: C_17  and  C_20 
ROOT
ATOM      1 CL   UNL A   1     -52.169  41.392  11.612  1.00  0.00    -0.080 Cl
ATOM      2 CL   UNL A   1     -51.021  43.092   6.542  1.00  0.00    -0.080 Cl
ATOM      3  N   UNL A   1     -50.566  39.627   8.433  1.00  0.00    -0.270 NA
ATOM      4  C   UNL A   1     -51.558  42.147   9.054  1.00  0.00     0.081 A 
ATOM      5  C   UNL A   1     -51.567  41.155  10.016  1.00  0.00     0.080 A 
ATOM      6  C   UNL A   1     -51.061  41.903   7.787  1.00  0.00     0.080 A 
ATOM      7  C   UNL A   1     -51.061  39.916   9.658  1.00  0.00     0.142 A 
ATOM      8  C   UNL A   1     -50.579  40.630   7.527  1.00  0.00     0.142 A 
ENDROOT
BRANCH   4   9
ATOM      9  N   UNL A   1     -52.064  43.432   9.370  1.00  0.00    -0.320 N 
ATOM     10  C   UNL A   1     -53.273  44.017   8.968  1.00  0.00     0.256 C 
ATOM     11  O   UNL A   1     -54.121  43.474   8.241  1.00  0.00    -0.267 OA
ATOM     12  H   UNL A   1     -51.492  43.987   9.947  1.00  0.00     0.169 HD
BRANCH  10  13
ATOM     13  C   UNL A   1     -53.508  45.375   9.435  1.00  0.00     0.035 A 
ATOM     14  C   UNL A   1     -52.721  45.906  10.457  1.00  0.00     0.056 A 
ATOM     15  C   UNL A   1     -52.948  47.208  10.905  1.00  0.00     0.103 A 
ATOM     16  C   UNL A   1     -53.959  47.977  10.331  1.00  0.00     0.108 A 
ATOM     17  C   UNL A   1     -54.746  47.446   9.309  1.00  0.00     0.041 A 
ATOM     18  C   UNL A   1     -54.519  46.144   8.861  1.00  0.00     0.020 A 
BRANCH  15  19
ATOM     19  O   UNL A   1     -52.174  47.716  11.904  1.00  0.00    -0.348 OA
BRANCH  19  20
ATOM     20  C   UNL A   1     -51.322  46.804  12.593  1.00  0.00     0.180 C 
BRANCH  20  21
ATOM     21  C   UNL A   1     -51.462  47.003  14.063  1.00  0.00     0.010 A 
ATOM     22  C   UNL A   1     -52.823  46.920  14.681  1.00  0.00     0.007 A 
ATOM     23  C   UNL A   1     -51.819  45.832  14.924  1.00  0.00     0.007 A 
ENDBRANCH  20  21
ENDBRANCH  19  20
ENDBRANCH  15  19
BRANCH  16  24
ATOM     24  O   UNL A   1     -54.189  49.250  10.760  1.00  0.00    -0.287 OA
BRANCH  24  25
ATOM     25  C   UNL A   1     -54.149  50.284   9.785  1.00  0.00     0.505 C 
ATOM     26  F   UNL A   1     -55.424  50.509   9.373  1.00  0.00    -0.184 F 
ATOM     27  F   UNL A   1     -53.724  51.431  10.370  1.00  0.00    -0.184 F 
ENDBRANCH  24  25
ENDBRANCH  16  24
ENDBRANCH  10  13
ENDBRANCH   4   9
TORSDOF 7
ENDMDL
MODEL 3
REMARK VINA RESULT:      -8.5      4.223      6.927
REMARK  7 active torsions:
REMARK  status: ('A' for Active; 'I' for Inactive)
REMARK    1  A    between atoms: O_5  and  C_13 
REMARK    2  A    between atoms: O_5  and  C_14 
REMARK    3  A    between atoms: O_6  and  C_15 
REMARK    4  A    between atoms: O_6  and  C_22 
REMARK       I    between atoms: N_8  and  C_20 
REMARK    5  A    between atoms: N_8  and  C_21 
REMARK    6  A    between atoms: C_10  and  C_13 
REMARK    7  A    between atoms: C_17  and  C_20 
ROOT
ATOM      1 CL   UNL A   1     -53.313  47.791  15.480  1.00  0.00    -0.080 Cl
ATOM      2 CL   UNL A   1     -48.526  47.193  12.902  1.00  0.00    -0.080 Cl
ATOM      3  N   UNL A   1     -49.531  48.330  16.575  1.00  0.00    -0.270 NA
ATOM      4  C   UNL A   1     -50.870  47.523  14.277  1.00  0.00     0.081 A 
ATOM      5  C   UNL A   1     -51.594  47.852  15.408  1.00  0.00     0.080 A 
ATOM      6  C   UNL A   1     -49.489  47.590  14.274  1.00  0.00     0.080 A 
ATOM      7  C   UNL A   1     -50.880  48.249  16.527  1.00  0.00     0.142 A 
ATOM      8  C   UNL A   1     -48.869  47.998  15.445  1.00  0.00     0.142 A 
ENDROOT
BRANCH   4   9
ATOM      9  N   UNL A   1     -51.552  47.110  13.106  1.00  0.00    -0.320 N 
ATOM     10  C   UNL A   1     -52.125  45.863  12.824  1.00  0.00     0.256 C 
ATOM     11  O   UNL A   1     -52.123  44.886  13.591  1.00  0.00    -0.267 OA
ATOM     12  H   UNL A   1     -51.633  47.789  12.398  1.00  0.00     0.169 HD
BRANCH  10  13
ATOM     13  C   UNL A   1     -52.740  45.729  11.512  1.00  0.00     0.035 A 
ATOM     14  C   UNL A   1     -53.039  46.867  10.763  1.00  0.00     0.056 A 
ATOM     15  C   UNL A   1     -53.629  46.738   9.506  1.00  0.00     0.103 A 
ATOM     16  C   UNL A   1     -53.920  45.472   8.998  1.00  0.00     0.108 A 
ATOM     17  C   UNL A   1     -53.621  44.334   9.747  1.00  0.00     0.041 A 
ATOM     18  C   UNL A   1     -53.031  44.463  11.004  1.00  0.00     0.020 A 
BRANCH  15  19
ATOM     19  O   UNL A   1     -53.917  47.856   8.783  1.00  0.00    -0.348 OA
BRANCH  19  20
ATOM     20  C   UNL A   1     -55.190  48.460   9.004  1.00  0.00     0.180 C 
BRANCH  20  21
ATOM     21  C   UNL A   1     -55.014  49.729   9.765  1.00  0.00     0.010 A 
ATOM     22  C   UNL A   1     -53.660  50.367   9.811  1.00  0.00     0.007 A 
ATOM     23  C   UNL A   1     -54.762  50.999   9.014  1.00  0.00     0.007 A 
ENDBRANCH  20  21
ENDBRANCH  19  20
ENDBRANCH  15  19
BRANCH  16  24
ATOM     24  O   UNL A   1     -54.495  45.333   7.771  1.00  0.00    -0.287 OA
BRANCH  24  25
ATOM     25  C   UNL A   1     -54.169  44.168   7.024  1.00  0.00     0.505 C 
ATOM     26  F   UNL A   1     -55.162  43.970   6.119  1.00  0.00    -0.184 F 
ATOM     27  F   UNL A   1     -53.038  44.397   6.313  1.00  0.00    -0.184 F 
ENDBRANCH  24  25
ENDBRANCH  16  24
ENDBRANCH  10  13
ENDBRANCH   4   9
TORSDOF 7
ENDMDL
MODEL 4
REMARK VINA RESULT:      -8.5      3.018      4.705
REMARK  7 active torsions:
REMARK  status: ('A' for Active; 'I' for Inactive)
REMARK    1  A    between atoms: O_5  and  C_13 
REMARK    2  A    between atoms: O_5  and  C_14 
REMARK    3  A    between atoms: O_6  and  C_15 
REMARK    4  A    between atoms: O_6  and  C_22 
REMARK       I    between atoms: N_8  and  C_20 
REMARK    5  A    between atoms: N_8  and  C_21 
REMARK    6  A    between atoms: C_10  and  C_13 
REMARK    7  A    between atoms: C_17  and  C_20 
ROOT
ATOM      1 CL   UNL A   1     -55.810  44.746   6.811  1.00  0.00    -0.080 Cl
ATOM      2 CL   UNL A   1     -50.629  42.996   6.913  1.00  0.00    -0.080 Cl
ATOM      3  N   UNL A   1     -53.636  42.495   4.362  1.00  0.00    -0.270 NA
ATOM      4  C   UNL A   1     -53.235  43.821   6.772  1.00  0.00     0.081 A 
ATOM      5  C   UNL A   1     -54.472  43.881   6.158  1.00  0.00     0.080 A 
ATOM      6  C   UNL A   1     -52.194  43.111   6.203  1.00  0.00     0.080 A 
ATOM      7  C   UNL A   1     -54.621  43.202   4.959  1.00  0.00     0.142 A 
ATOM      8  C   UNL A   1     -52.445  42.467   5.001  1.00  0.00     0.142 A 
ENDROOT
BRANCH   4   9
ATOM      9  N   UNL A   1     -53.030  44.498   7.999  1.00  0.00    -0.320 N 
ATOM     10  C   UNL A   1     -53.268  44.036   9.301  1.00  0.00     0.256 C 
ATOM     11  O   UNL A   1     -53.714  42.913   9.589  1.00  0.00    -0.267 OA
ATOM     12  H   UNL A   1     -52.674  45.413   7.928  1.00  0.00     0.169 HD
BRANCH  10  13
ATOM     13  C   UNL A   1     -52.983  44.979  10.371  1.00  0.00     0.035 A 
ATOM     14  C   UNL A   1     -53.131  46.348  10.152  1.00  0.00     0.056 A 
ATOM     15  C   UNL A   1     -52.857  47.252  11.179  1.00  0.00     0.103 A 
ATOM     16  C   UNL A   1     -52.434  46.786  12.424  1.00  0.00     0.108 A 
ATOM     17  C   UNL A   1     -52.286  45.417  12.643  1.00  0.00     0.041 A 
ATOM     18  C   UNL A   1     -52.560  44.513  11.616  1.00  0.00     0.020 A 
BRANCH  15  19
ATOM     19  O   UNL A   1     -53.005  48.587  10.954  1.00  0.00    -0.348 OA
BRANCH  19  20
ATOM     20  C   UNL A   1     -53.671  48.972   9.753  1.00  0.00     0.180 C 
BRANCH  20  21
ATOM     21  C   UNL A   1     -54.543  50.149  10.022  1.00  0.00     0.010 A 
ATOM     22  C   UNL A   1     -53.916  51.502  10.161  1.00  0.00     0.007 A 
ATOM     23  C   UNL A   1     -54.734  51.173   8.947  1.00  0.00     0.007 A 
ENDBRANCH  20  21
ENDBRANCH  19  20
ENDBRANCH  15  19
BRANCH  16  24
ATOM     24  O   UNL A   1     -52.164  47.659  13.434  1.00  0.00    -0.287 OA
BRANCH  24  25
ATOM     25  C   UNL A   1     -52.005  47.118  14.740  1.00  0.00     0.505 C 
ATOM     26  F   UNL A   1     -51.293  48.014  15.471  1.00  0.00    -0.184 F 
ATOM     27  F   UNL A   1     -53.220  47.017  15.331  1.00  0.00    -0.184 F 
ENDBRANCH  24  25
ENDBRANCH  16  24
ENDBRANCH  10  13
ENDBRANCH   4   9
TORSDOF 7
ENDMDL
MODEL 5
REMARK VINA RESULT:      -8.4      3.751      6.847
REMARK  7 active torsions:
REMARK  status: ('A' for Active; 'I' for Inactive)
REMARK    1  A    between atoms: O_5  and  C_13 
REMARK    2  A    between atoms: O_5  and  C_14 
REMARK    3  A    between atoms: O_6  and  C_15 
REMARK    4  A    between atoms: O_6  and  C_22 
REMARK       I    between atoms: N_8  and  C_20 
REMARK    5  A    between atoms: N_8  and  C_21 
REMARK    6  A    between atoms: C_10  and  C_13 
REMARK    7  A    between atoms: C_17  and  C_20 
ROOT
ATOM      1 CL   UNL A   1     -48.643  47.061  13.032  1.00  0.00    -0.080 Cl
ATOM      2 CL   UNL A   1     -53.140  48.166  15.941  1.00  0.00    -0.080 Cl
ATOM      3  N   UNL A   1     -49.270  48.027  16.835  1.00  0.00    -0.270 NA
ATOM      4  C   UNL A   1     -50.833  47.628  14.572  1.00  0.00     0.081 A 
ATOM      5  C   UNL A   1     -49.461  47.483  14.487  1.00  0.00     0.080 A 
ATOM      6  C   UNL A   1     -51.438  47.969  15.767  1.00  0.00     0.080 A 
ATOM      7  C   UNL A   1     -48.726  47.692  15.644  1.00  0.00     0.142 A 
ATOM      8  C   UNL A   1     -50.615  48.157  16.866  1.00  0.00     0.142 A 
ENDROOT
BRANCH   4   9
ATOM      9  N   UNL A   1     -51.629  47.426  13.418  1.00  0.00    -0.320 N 
ATOM     10  C   UNL A   1     -51.926  46.223  12.762  1.00  0.00     0.256 C 
ATOM     11  O   UNL A   1     -51.518  45.102  13.108  1.00  0.00    -0.267 OA
ATOM     12  H   UNL A   1     -52.026  48.237  13.025  1.00  0.00     0.169 HD
BRANCH  10  13
ATOM     13  C   UNL A   1     -52.758  46.337  11.574  1.00  0.00     0.035 A 
ATOM     14  C   UNL A   1     -53.132  45.190  10.873  1.00  0.00     0.056 A 
ATOM     15  C   UNL A   1     -53.929  45.300   9.733  1.00  0.00     0.103 A 
ATOM     16  C   UNL A   1     -54.351  46.555   9.295  1.00  0.00     0.108 A 
ATOM     17  C   UNL A   1     -53.977  47.701   9.996  1.00  0.00     0.041 A 
ATOM     18  C   UNL A   1     -53.180  47.592  11.136  1.00  0.00     0.020 A 
BRANCH  15  19
ATOM     19  O   UNL A   1     -54.289  44.175   9.056  1.00  0.00    -0.348 OA
BRANCH  19  20
ATOM     20  C   UNL A   1     -53.259  43.488   8.347  1.00  0.00     0.180 C 
BRANCH  20  21
ATOM     21  C   UNL A   1     -53.400  43.750   6.886  1.00  0.00     0.010 A 
ATOM     22  C   UNL A   1     -53.867  42.644   5.992  1.00  0.00     0.007 A 
ATOM     23  C   UNL A   1     -54.770  43.804   6.287  1.00  0.00     0.007 A 
ENDBRANCH  20  21
ENDBRANCH  19  20
ENDBRANCH  15  19
BRANCH  16  24
ATOM     24  O   UNL A   1     -55.131  46.675   8.184  1.00  0.00    -0.287 OA
BRANCH  24  25
ATOM     25  C   UNL A   1     -56.534  46.801   8.381  1.00  0.00     0.505 C 
ATOM     26  F   UNL A   1     -56.984  45.623   8.886  1.00  0.00    -0.184 F 
ATOM     27  F   UNL A   1     -56.767  47.741   9.329  1.00  0.00    -0.184 F 
ENDBRANCH  24  25
ENDBRANCH  16  24
ENDBRANCH  10  13
ENDBRANCH   4   9
TORSDOF 7
ENDMDL
MODEL 6
REMARK VINA RESULT:      -8.3      4.108      6.773
REMARK  7 active torsions:
REMARK  status: ('A' for Active; 'I' for Inactive)
REMARK    1  A    between atoms: O_5  and  C_13 
REMARK    2  A    between atoms: O_5  and  C_14 
REMARK    3  A    between atoms: O_6  and  C_15 
REMARK    4  A    between atoms: O_6  and  C_22 
REMARK       I    between atoms: N_8  and  C_20 
REMARK    5  A    between atoms: N_8  and  C_21 
REMARK    6  A    between atoms: C_10  and  C_13 
REMARK    7  A    between atoms: C_17  and  C_20 
ROOT
ATOM      1 CL   UNL A   1     -48.519  46.949  12.980  1.00  0.00    -0.080 Cl
ATOM      2 CL   UNL A   1     -53.272  47.852  15.531  1.00  0.00    -0.080 Cl
ATOM      3  N   UNL A   1     -49.472  48.444  16.537  1.00  0.00    -0.270 NA
ATOM      4  C   UNL A   1     -50.843  47.438  14.338  1.00  0.00     0.081 A 
ATOM      5  C   UNL A   1     -49.462  47.487  14.317  1.00  0.00     0.080 A 
ATOM      6  C   UNL A   1     -51.552  47.883  15.439  1.00  0.00     0.080 A 
ATOM      7  C   UNL A   1     -48.826  47.996  15.437  1.00  0.00     0.142 A 
ATOM      8  C   UNL A   1     -50.822  48.376  16.509  1.00  0.00     0.142 A 
ENDROOT
BRANCH   4   9
ATOM      9  N   UNL A   1     -51.542  46.926  13.217  1.00  0.00    -0.320 N 
ATOM     10  C   UNL A   1     -51.840  45.592  12.909  1.00  0.00     0.256 C 
ATOM     11  O   UNL A   1     -51.522  44.612  13.602  1.00  0.00    -0.267 OA
ATOM     12  H   UNL A   1     -51.861  47.597  12.570  1.00  0.00     0.169 HD
BRANCH  10  13
ATOM     13  C   UNL A   1     -52.555  45.373  11.661  1.00  0.00     0.035 A 
ATOM     14  C   UNL A   1     -52.941  46.461  10.878  1.00  0.00     0.056 A 
ATOM     15  C   UNL A   1     -53.628  46.251   9.683  1.00  0.00     0.103 A 
ATOM     16  C   UNL A   1     -53.929  44.953   9.270  1.00  0.00     0.108 A 
ATOM     17  C   UNL A   1     -53.543  43.865  10.053  1.00  0.00     0.041 A 
ATOM     18  C   UNL A   1     -52.856  44.075  11.249  1.00  0.00     0.020 A 
BRANCH  15  19
ATOM     19  O   UNL A   1     -54.000  47.320   8.926  1.00  0.00    -0.348 OA
BRANCH  19  20
ATOM     20  C   UNL A   1     -53.216  48.505   9.050  1.00  0.00     0.180 C 
BRANCH  20  21
ATOM     21  C   UNL A   1     -53.985  49.535   9.804  1.00  0.00     0.010 A 
ATOM     22  C   UNL A   1     -54.021  50.940   9.287  1.00  0.00     0.007 A 
ATOM     23  C   UNL A   1     -55.247  50.079   9.211  1.00  0.00     0.007 A 
ENDBRANCH  20  21
ENDBRANCH  19  20
ENDBRANCH  15  19
BRANCH  16  24
ATOM     24  O   UNL A   1     -54.598  44.734   8.104  1.00  0.00    -0.287 OA
BRANCH  24  25
ATOM     25  C   UNL A   1     -53.906  44.039   7.074  1.00  0.00     0.505 C 
ATOM     26  F   UNL A   1     -54.562  44.274   5.908  1.00  0.00    -0.184 F 
ATOM     27  F   UNL A   1     -52.667  44.570   6.933  1.00  0.00    -0.184 F 
ENDBRANCH  24  25
ENDBRANCH  16  24
ENDBRANCH  10  13
ENDBRANCH   4   9
TORSDOF 7
ENDMDL
MODEL 7
REMARK VINA RESULT:      -8.2      3.729      6.989
REMARK  7 active torsions:
REMARK  status: ('A' for Active; 'I' for Inactive)
REMARK    1  A    between atoms: O_5  and  C_13 
REMARK    2  A    between atoms: O_5  and  C_14 
REMARK    3  A    between atoms: O_6  and  C_15 
REMARK    4  A    between atoms: O_6  and  C_22 
REMARK       I    between atoms: N_8  and  C_20 
REMARK    5  A    between atoms: N_8  and  C_21 
REMARK    6  A    between atoms: C_10  and  C_13 
REMARK    7  A    between atoms: C_17  and  C_20 
ROOT
ATOM      1 CL   UNL A   1     -53.288  47.916  15.975  1.00  0.00    -0.080 Cl
ATOM      2 CL   UNL A   1     -48.659  47.130  13.170  1.00  0.00    -0.080 Cl
ATOM      3  N   UNL A   1     -49.443  47.945  16.980  1.00  0.00    -0.270 NA
ATOM      4  C   UNL A   1     -50.918  47.539  14.660  1.00  0.00     0.081 A 
ATOM      5  C   UNL A   1     -51.574  47.811  15.846  1.00  0.00     0.080 A 
ATOM      6  C   UNL A   1     -49.538  47.466  14.612  1.00  0.00     0.080 A 
ATOM      7  C   UNL A   1     -50.794  48.006  16.974  1.00  0.00     0.142 A 
ATOM      8  C   UNL A   1     -48.849  47.676  15.796  1.00  0.00     0.142 A 
ENDROOT
BRANCH   4   9
ATOM      9  N   UNL A   1     -51.670  47.331  13.477  1.00  0.00    -0.320 N 
ATOM     10  C   UNL A   1     -51.861  46.140  12.762  1.00  0.00     0.256 C 
ATOM     11  O   UNL A   1     -51.378  45.038  13.070  1.00  0.00    -0.267 OA
ATOM     12  H   UNL A   1     -52.117  48.127  13.110  1.00  0.00     0.169 HD
BRANCH  10  13
ATOM     13  C   UNL A   1     -52.670  46.246  11.558  1.00  0.00     0.035 A 
ATOM     14  C   UNL A   1     -53.045  45.094  10.867  1.00  0.00     0.056 A 
ATOM     15  C   UNL A   1     -53.821  45.196   9.712  1.00  0.00     0.103 A 
ATOM     16  C   UNL A   1     -54.220  46.449   9.248  1.00  0.00     0.108 A 
ATOM     17  C   UNL A   1     -53.845  47.601   9.939  1.00  0.00     0.041 A 
ATOM     18  C   UNL A   1     -53.070  47.499  11.094  1.00  0.00     0.020 A 
BRANCH  15  19
ATOM     19  O   UNL A   1     -54.181  44.065   9.044  1.00  0.00    -0.348 OA
BRANCH  19  20
ATOM     20  C   UNL A   1     -53.135  43.309   8.438  1.00  0.00     0.180 C 
BRANCH  20  21
ATOM     21  C   UNL A   1     -53.237  43.416   6.955  1.00  0.00     0.010 A 
ATOM     22  C   UNL A   1     -53.881  42.302   6.189  1.00  0.00     0.007 A 
ATOM     23  C   UNL A   1     -54.582  43.620   6.332  1.00  0.00     0.007 A 
ENDBRANCH  20  21
ENDBRANCH  19  20
ENDBRANCH  15  19
BRANCH  16  24
ATOM     24  O   UNL A   1     -54.979  46.562   8.122  1.00  0.00    -0.287 OA
BRANCH  24  25
ATOM     25  C   UNL A   1     -56.386  46.686   8.292  1.00  0.00     0.505 C 
ATOM     26  F   UNL A   1     -56.806  45.620   9.021  1.00  0.00    -0.184 F 
ATOM     27  F   UNL A   1     -56.648  47.789   9.034  1.00  0.00    -0.184 F 
ENDBRANCH  24  25
ENDBRANCH  16  24
ENDBRANCH  10  13
ENDBRANCH   4   9
TORSDOF 7
ENDMDL
MODEL 8
REMARK VINA RESULT:      -7.9      2.752      4.445
REMARK  7 active torsions:
REMARK  status: ('A' for Active; 'I' for Inactive)
REMARK    1  A    between atoms: O_5  and  C_13 
REMARK    2  A    between atoms: O_5  and  C_14 
REMARK    3  A    between atoms: O_6  and  C_15 
REMARK    4  A    between atoms: O_6  and  C_22 
REMARK       I    between atoms: N_8  and  C_20 
REMARK    5  A    between atoms: N_8  and  C_21 
REMARK    6  A    between atoms: C_10  and  C_13 
REMARK    7  A    between atoms: C_17  and  C_20 
ROOT
ATOM      1 CL   UNL A   1     -48.639  42.047   9.589  1.00  0.00    -0.080 Cl
ATOM      2 CL   UNL A   1     -52.662  44.432   6.753  1.00  0.00    -0.080 Cl
ATOM      3  N   UNL A   1     -49.954  41.663   5.859  1.00  0.00    -0.270 NA
ATOM      4  C   UNL A   1     -50.625  43.182   8.087  1.00  0.00     0.081 A 
ATOM      5  C   UNL A   1     -49.576  42.286   8.164  1.00  0.00     0.080 A 
ATOM      6  C   UNL A   1     -51.345  43.334   6.917  1.00  0.00     0.080 A 
ATOM      7  C   UNL A   1     -49.281  41.552   7.026  1.00  0.00     0.142 A 
ATOM      8  C   UNL A   1     -50.971  42.554   5.834  1.00  0.00     0.142 A 
ENDROOT
BRANCH   4   9
ATOM      9  N   UNL A   1     -50.968  43.956   9.223  1.00  0.00    -0.320 N 
ATOM     10  C   UNL A   1     -51.750  43.589  10.327  1.00  0.00     0.256 C 
ATOM     11  O   UNL A   1     -52.286  42.479  10.483  1.00  0.00    -0.267 OA
ATOM     12  H   UNL A   1     -50.609  44.873   9.240  1.00  0.00     0.169 HD
BRANCH  10  13
ATOM     13  C   UNL A   1     -51.950  44.618  11.335  1.00  0.00     0.035 A 
ATOM     14  C   UNL A   1     -52.367  45.894  10.955  1.00  0.00     0.056 A 
ATOM     15  C   UNL A   1     -52.558  46.881  11.922  1.00  0.00     0.103 A 
ATOM     16  C   UNL A   1     -52.332  46.592  13.268  1.00  0.00     0.108 A 
ATOM     17  C   UNL A   1     -51.915  45.317  13.647  1.00  0.00     0.041 A 
ATOM     18  C   UNL A   1     -51.724  44.329  12.680  1.00  0.00     0.020 A 
BRANCH  15  19
ATOM     19  O   UNL A   1     -52.965  48.123  11.540  1.00  0.00    -0.348 OA
BRANCH  19  20
ATOM     20  C   UNL A   1     -53.380  48.281  10.185  1.00  0.00     0.180 C 
BRANCH  20  21
ATOM     21  C   UNL A   1     -54.664  49.037  10.142  1.00  0.00     0.010 A 
ATOM     22  C   UNL A   1     -54.758  50.263   9.288  1.00  0.00     0.007 A 
ATOM     23  C   UNL A   1     -55.481  49.011   8.889  1.00  0.00     0.007 A 
ENDBRANCH  20  21
ENDBRANCH  19  20
ENDBRANCH  15  19
BRANCH  16  24
ATOM     24  O   UNL A   1     -52.516  47.548  14.221  1.00  0.00    -0.287 OA
BRANCH  24  25
ATOM     25  C   UNL A   1     -51.573  47.599  15.285  1.00  0.00     0.505 C 
ATOM     26  F   UNL A   1     -50.753  48.658  15.055  1.00  0.00    -0.184 F 
ATOM     27  F   UNL A   1     -52.225  47.860  16.444  1.00  0.00    -0.184 F 
ENDBRANCH  24  25
ENDBRANCH  16  24
ENDBRANCH  10  13
ENDBRANCH   4   9
TORSDOF 7
ENDMDL
MODEL 9
REMARK VINA RESULT:      -7.8      3.816      5.472
REMARK  7 active torsions:
REMARK  status: ('A' for Active; 'I' for Inactive)
REMARK    1  A    between atoms: O_5  and  C_13 
REMARK    2  A    between atoms: O_5  and  C_14 
REMARK    3  A    between atoms: O_6  and  C_15 
REMARK    4  A    between atoms: O_6  and  C_22 
REMARK       I    between atoms: N_8  and  C_20 
REMARK    5  A    between atoms: N_8  and  C_21 
REMARK    6  A    between atoms: C_10  and  C_13 
REMARK    7  A    between atoms: C_17  and  C_20 
ROOT
ATOM      1 CL   UNL A   1     -48.308  38.665   6.094  1.00  0.00    -0.080 Cl
ATOM      2 CL   UNL A   1     -49.545  40.158  11.208  1.00  0.00    -0.080 Cl
ATOM      3  N   UNL A   1     -47.050  37.473   9.671  1.00  0.00    -0.270 NA
ATOM      4  C   UNL A   1     -48.858  39.341   8.688  1.00  0.00     0.081 A 
ATOM      5  C   UNL A   1     -48.143  38.555   7.805  1.00  0.00     0.080 A 
ATOM      6  C   UNL A   1     -48.687  39.210  10.054  1.00  0.00     0.080 A 
ATOM      7  C   UNL A   1     -47.255  37.638   8.344  1.00  0.00     0.142 A 
ATOM      8  C   UNL A   1     -47.774  38.265  10.493  1.00  0.00     0.142 A 
ENDROOT
BRANCH   4   9
ATOM      9  N   UNL A   1     -49.779  40.294   8.187  1.00  0.00    -0.320 N 
ATOM     10  C   UNL A   1     -49.526  41.592   7.721  1.00  0.00     0.256 C 
ATOM     11  O   UNL A   1     -48.406  42.127   7.675  1.00  0.00    -0.267 OA
ATOM     12  H   UNL A   1     -50.721  40.007   8.164  1.00  0.00     0.169 HD
BRANCH  10  13
ATOM     13  C   UNL A   1     -50.691  42.350   7.291  1.00  0.00     0.035 A 
ATOM     14  C   UNL A   1     -51.721  42.617   8.193  1.00  0.00     0.056 A 
ATOM     15  C   UNL A   1     -52.838  43.343   7.779  1.00  0.00     0.103 A 
ATOM     16  C   UNL A   1     -52.924  43.802   6.465  1.00  0.00     0.108 A 
ATOM     17  C   UNL A   1     -51.894  43.535   5.563  1.00  0.00     0.041 A 
ATOM     18  C   UNL A   1     -50.777  42.809   5.977  1.00  0.00     0.020 A 
BRANCH  15  19
ATOM     19  O   UNL A   1     -53.838  43.598   8.668  1.00  0.00    -0.348 OA
BRANCH  19  20
ATOM     20  C   UNL A   1     -53.467  44.204   9.905  1.00  0.00     0.180 C 
BRANCH  20  21
ATOM     21  C   UNL A   1     -54.155  45.518  10.042  1.00  0.00     0.010 A 
ATOM     22  C   UNL A   1     -53.723  46.660   9.175  1.00  0.00     0.007 A 
ATOM     23  C   UNL A   1     -55.045  45.992   8.936  1.00  0.00     0.007 A 
ENDBRANCH  20  21
ENDBRANCH  19  20
ENDBRANCH  15  19
BRANCH  16  24
ATOM     24  O   UNL A   1     -54.009  44.514   6.050  1.00  0.00    -0.287 OA
BRANCH  24  25
ATOM     25  C   UNL A   1     -55.162  43.778   5.660  1.00  0.00     0.505 C 
ATOM     26  F   UNL A   1     -54.971  42.487   6.036  1.00  0.00    -0.184 F 
ATOM     27  F   UNL A   1     -56.234  44.229   6.357  1.00  0.00    -0.184 F 
ENDBRANCH  24  25
ENDBRANCH  16  24
ENDBRANCH  10  13
ENDBRANCH   4   9
TORSDOF 7
ENDMDL
