MODEL 1
REMARK VINA RESULT:     -23.2      0.000      0.000
REMARK  7 active torsions:
REMARK  status: ('A' for Active; 'I' for Inactive)
REMARK    1  A    between atoms: O_5  and  C_13 
REMARK    2  A    between atoms: O_5  and  C_14 
REMARK    3  A    between atoms: O_6  and  C_15 
REMARK    4  A    between atoms: O_6  and  C_22 
REMARK       I    between atoms: N_8  and  C_20 
REMARK    5  A    between atoms: N_8  and  C_21 
REMARK    6  A    between atoms: C_10  and  C_13 
REMARK    7  A    between atoms: C_17  and  C_20 
ROOT
ATOM      1 CL   UNL A   1     -49.346  47.039  14.624  1.00  0.00    -0.080 Cl
ATOM      2 CL   UNL A   1     -54.298  47.506  16.898  1.00  0.00    -0.080 Cl
ATOM      3  N   UNL A   1     -50.844  45.992  18.153  1.00  0.00    -0.270 NA
ATOM      4  C   UNL A   1     -51.787  47.226  15.848  1.00  0.00     0.081 A 
ATOM      5  C   UNL A   1     -50.467  46.821  15.913  1.00  0.00     0.080 A 
ATOM      6  C   UNL A   1     -52.645  47.026  16.913  1.00  0.00     0.080 A 
ATOM      7  C   UNL A   1     -50.046  46.210  17.084  1.00  0.00     0.142 A 
ATOM      8  C   UNL A   1     -52.126  46.407  18.040  1.00  0.00     0.142 A 
ENDROOT
BRANCH   4   9
ATOM      9  N   UNL A   1     -52.267  47.856  14.673  1.00  0.00    -0.320 N 
ATOM     10  C   UNL A   1     -52.778  49.153  14.525  1.00  0.00     0.256 C 
ATOM     11  O   UNL A   1     -52.893  49.983  15.441  1.00  0.00    -0.267 OA
ATOM     12  H   UNL A   1     -52.238  47.311  13.854  1.00  0.00     0.169 HD
BRANCH  10  13
ATOM     13  C   UNL A   1     -53.223  49.511  13.187  1.00  0.00     0.035 A 
ATOM     14  C   UNL A   1     -53.227  48.552  12.174  1.00  0.00     0.056 A 
ATOM     15  C   UNL A   1     -53.652  48.896  10.890  1.00  0.00     0.103 A 
ATOM     16  C   UNL A   1     -54.072  50.198  10.620  1.00  0.00     0.108 A 
ATOM     17  C   UNL A   1     -54.068  51.157  11.633  1.00  0.00     0.041 A 
ATOM     18  C   UNL A   1     -53.643  50.813  12.917  1.00  0.00     0.020 A 
BRANCH  15  19
ATOM     19  O   UNL A   1     -53.652  47.952   9.909  1.00  0.00    -0.348 OA
BRANCH  19  20
ATOM     20  C   UNL A   1     -52.438  47.232   9.702  1.00  0.00     0.180 C 
BRANCH  20  21
ATOM     21  C   UNL A   1     -52.082  47.261   8.255  1.00  0.00     0.010 A 
ATOM     22  C   UNL A   1     -53.139  47.603   7.253  1.00  0.00     0.007 A 
ATOM     23  C   UNL A   1     -52.036  48.577   7.544  1.00  0.00     0.007 A 
ENDBRANCH  20  21
ENDBRANCH  19  20
ENDBRANCH  15  19
BRANCH  16  24
ATOM     24  O   UNL A   1     -54.491  50.546   9.372  1.00  0.00    -0.287 OA
BRANCH  24  25
ATOM     25  C   UNL A   1     -54.093  51.820   8.880  1.00  0.00     0.505 C 
ATOM     26  F   UNL A   1     -53.729  52.575   9.949  1.00  0.00    -0.184 F 
ATOM     27  F   UNL A   1     -52.985  51.675   8.114  1.00  0.00    -0.184 F 
ENDBRANCH  24  25
ENDBRANCH  16  24
ENDBRANCH  10  13
ENDBRANCH   4   9
TORSDOF 7
ENDMDL
MODEL 2
REMARK VINA RESULT:     -23.2      0.171      1.782
REMARK  7 active torsions:
REMARK  status: ('A' for Active; 'I' for Inactive)
REMARK    1  A    between atoms: O_5  and  C_13 
REMARK    2  A    between atoms: O_5  and  C_14 
REMARK    3  A    between atoms: O_6  and  C_15 
REMARK    4  A    between atoms: O_6  and  C_22 
REMARK       I    between atoms: N_8  and  C_20 
REMARK    5  A    between atoms: N_8  and  C_21 
REMARK    6  A    between atoms: C_10  and  C_13 
REMARK    7  A    between atoms: C_17  and  C_20 
ROOT
ATOM      1 CL   UNL A   1     -54.312  47.536  16.833  1.00  0.00    -0.080 Cl
ATOM      2 CL   UNL A   1     -49.454  46.733  14.453  1.00  0.00    -0.080 Cl
ATOM      3  N   UNL A   1     -50.950  45.773  18.008  1.00  0.00    -0.270 NA
ATOM      4  C   UNL A   1     -51.849  47.085  15.729  1.00  0.00     0.081 A 
ATOM      5  C   UNL A   1     -52.697  46.940  16.811  1.00  0.00     0.080 A 
ATOM      6  C   UNL A   1     -50.560  46.587  15.765  1.00  0.00     0.080 A 
ATOM      7  C   UNL A   1     -52.201  46.279  17.923  1.00  0.00     0.142 A 
ATOM      8  C   UNL A   1     -50.160  45.941  16.924  1.00  0.00     0.142 A 
ENDROOT
BRANCH   4   9
ATOM      9  N   UNL A   1     -52.308  47.753  14.567  1.00  0.00    -0.320 N 
ATOM     10  C   UNL A   1     -52.797  49.061  14.447  1.00  0.00     0.256 C 
ATOM     11  O   UNL A   1     -52.908  49.870  15.384  1.00  0.00    -0.267 OA
ATOM     12  H   UNL A   1     -52.279  47.229  13.734  1.00  0.00     0.169 HD
BRANCH  10  13
ATOM     13  C   UNL A   1     -53.223  49.461  13.115  1.00  0.00     0.035 A 
ATOM     14  C   UNL A   1     -53.249  48.525  12.082  1.00  0.00     0.056 A 
ATOM     15  C   UNL A   1     -53.656  48.909  10.804  1.00  0.00     0.103 A 
ATOM     16  C   UNL A   1     -54.036  50.229  10.560  1.00  0.00     0.108 A 
ATOM     17  C   UNL A   1     -54.009  51.165  11.593  1.00  0.00     0.041 A 
ATOM     18  C   UNL A   1     -53.602  50.781  12.871  1.00  0.00     0.020 A 
BRANCH  15  19
ATOM     19  O   UNL A   1     -53.678  47.987   9.802  1.00  0.00    -0.348 OA
BRANCH  19  20
ATOM     20  C   UNL A   1     -52.523  47.164   9.653  1.00  0.00     0.180 C 
BRANCH  20  21
ATOM     21  C   UNL A   1     -52.048  47.223   8.241  1.00  0.00     0.010 A 
ATOM     22  C   UNL A   1     -53.049  47.412   7.145  1.00  0.00     0.007 A 
ATOM     23  C   UNL A   1     -52.112  48.526   7.507  1.00  0.00     0.007 A 
ENDBRANCH  20  21
ENDBRANCH  19  20
ENDBRANCH  15  19
BRANCH  16  24
ATOM     24  O   UNL A   1     -54.436  50.616   9.317  1.00  0.00    -0.287 OA
BRANCH  24  25
ATOM     25  C   UNL A   1     -53.988  51.883   8.851  1.00  0.00     0.505 C 
ATOM     26  F   UNL A   1     -53.620  52.612   9.936  1.00  0.00    -0.184 F 
ATOM     27  F   UNL A   1     -52.870  51.711   8.104  1.00  0.00    -0.184 F 
ENDBRANCH  24  25
ENDBRANCH  16  24
ENDBRANCH  10  13
ENDBRANCH   4   9
TORSDOF 7
ENDMDL
MODEL 3
REMARK VINA RESULT:     -22.0      4.372      6.564
REMARK  7 active torsions:
REMARK  status: ('A' for Active; 'I' for Inactive)
REMARK    1  A    between atoms: O_5  and  C_13 
REMARK    2  A    between atoms: O_5  and  C_14 
REMARK    3  A    between atoms: O_6  and  C_15 
REMARK    4  A    between atoms: O_6  and  C_22 
REMARK       I    between atoms: N_8  and  C_20 
REMARK    5  A    between atoms: N_8  and  C_21 
REMARK    6  A    between atoms: C_10  and  C_13 
REMARK    7  A    between atoms: C_17  and  C_20 
ROOT
ATOM      1 CL   UNL A   1     -52.589  46.944  13.044  1.00  0.00    -0.080 Cl
ATOM      2 CL   UNL A   1     -54.011  51.143   9.841  1.00  0.00    -0.080 Cl
ATOM      3  N   UNL A   1     -53.711  50.685  13.778  1.00  0.00    -0.270 NA
ATOM      4  C   UNL A   1     -53.315  49.103  11.527  1.00  0.00     0.081 A 
ATOM      5  C   UNL A   1     -53.099  48.568  12.783  1.00  0.00     0.080 A 
ATOM      6  C   UNL A   1     -53.725  50.414  11.375  1.00  0.00     0.080 A 
ATOM      7  C   UNL A   1     -53.311  49.397  13.873  1.00  0.00     0.142 A 
ATOM      8  C   UNL A   1     -53.908  51.161  12.528  1.00  0.00     0.142 A 
ENDROOT
BRANCH   4   9
ATOM      9  N   UNL A   1     -53.112  48.297  10.380  1.00  0.00    -0.320 N 
ATOM     10  C   UNL A   1     -54.071  47.755   9.513  1.00  0.00     0.256 C 
ATOM     11  O   UNL A   1     -55.299  47.907   9.624  1.00  0.00    -0.267 OA
ATOM     12  H   UNL A   1     -52.174  48.090  10.164  1.00  0.00     0.169 HD
BRANCH  10  13
ATOM     13  C   UNL A   1     -53.555  46.938   8.426  1.00  0.00     0.035 A 
ATOM     14  C   UNL A   1     -52.844  45.772   8.707  1.00  0.00     0.056 A 
ATOM     15  C   UNL A   1     -52.349  44.989   7.664  1.00  0.00     0.103 A 
ATOM     16  C   UNL A   1     -52.564  45.373   6.341  1.00  0.00     0.108 A 
ATOM     17  C   UNL A   1     -53.275  46.540   6.059  1.00  0.00     0.041 A 
ATOM     18  C   UNL A   1     -53.770  47.322   7.102  1.00  0.00     0.020 A 
BRANCH  15  19
ATOM     19  O   UNL A   1     -51.656  43.852   7.950  1.00  0.00    -0.348 OA
BRANCH  19  20
ATOM     20  C   UNL A   1     -52.402  42.750   8.462  1.00  0.00     0.180 C 
BRANCH  20  21
ATOM     21  C   UNL A   1     -52.089  41.526   7.672  1.00  0.00     0.010 A 
ATOM     22  C   UNL A   1     -50.667  41.250   7.291  1.00  0.00     0.007 A 
ATOM     23  C   UNL A   1     -51.345  40.407   8.331  1.00  0.00     0.007 A 
ENDBRANCH  20  21
ENDBRANCH  19  20
ENDBRANCH  15  19
BRANCH  16  24
ATOM     24  O   UNL A   1     -52.086  44.617   5.313  1.00  0.00    -0.287 OA
BRANCH  24  25
ATOM     25  C   UNL A   1     -52.228  45.137   3.997  1.00  0.00     0.505 C 
ATOM     26  F   UNL A   1     -51.270  44.562   3.224  1.00  0.00    -0.184 F 
ATOM     27  F   UNL A   1     -53.421  44.743   3.490  1.00  0.00    -0.184 F 
ENDBRANCH  24  25
ENDBRANCH  16  24
ENDBRANCH  10  13
ENDBRANCH   4   9
TORSDOF 7
ENDMDL
MODEL 4
REMARK VINA RESULT:     -22.0      4.365      6.572
REMARK  7 active torsions:
REMARK  status: ('A' for Active; 'I' for Inactive)
REMARK    1  A    between atoms: O_5  and  C_13 
REMARK    2  A    between atoms: O_5  and  C_14 
REMARK    3  A    between atoms: O_6  and  C_15 
REMARK    4  A    between atoms: O_6  and  C_22 
REMARK       I    between atoms: N_8  and  C_20 
REMARK    5  A    between atoms: N_8  and  C_21 
REMARK    6  A    between atoms: C_10  and  C_13 
REMARK    7  A    between atoms: C_17  and  C_20 
ROOT
ATOM      1 CL   UNL A   1     -54.038  51.157   9.830  1.00  0.00    -0.080 Cl
ATOM      2 CL   UNL A   1     -52.555  46.993  13.051  1.00  0.00    -0.080 Cl
ATOM      3  N   UNL A   1     -53.692  50.734  13.766  1.00  0.00    -0.270 NA
ATOM      4  C   UNL A   1     -53.311  49.135  11.525  1.00  0.00     0.081 A 
ATOM      5  C   UNL A   1     -53.731  50.443  11.367  1.00  0.00     0.080 A 
ATOM      6  C   UNL A   1     -53.078  48.612  12.783  1.00  0.00     0.080 A 
ATOM      7  C   UNL A   1     -53.905  51.199  12.515  1.00  0.00     0.142 A 
ATOM      8  C   UNL A   1     -53.283  49.449  13.868  1.00  0.00     0.142 A 
ENDROOT
BRANCH   4   9
ATOM      9  N   UNL A   1     -53.118  48.320  10.383  1.00  0.00    -0.320 N 
ATOM     10  C   UNL A   1     -54.083  47.780   9.522  1.00  0.00     0.256 C 
ATOM     11  O   UNL A   1     -55.310  47.942   9.634  1.00  0.00    -0.267 OA
ATOM     12  H   UNL A   1     -52.182  48.104  10.165  1.00  0.00     0.169 HD
BRANCH  10  13
ATOM     13  C   UNL A   1     -53.576  46.952   8.439  1.00  0.00     0.035 A 
ATOM     14  C   UNL A   1     -52.918  45.756   8.726  1.00  0.00     0.056 A 
ATOM     15  C   UNL A   1     -52.431  44.962   7.687  1.00  0.00     0.103 A 
ATOM     16  C   UNL A   1     -52.602  45.365   6.362  1.00  0.00     0.108 A 
ATOM     17  C   UNL A   1     -53.261  46.560   6.076  1.00  0.00     0.041 A 
ATOM     18  C   UNL A   1     -53.748  47.354   7.115  1.00  0.00     0.020 A 
BRANCH  15  19
ATOM     19  O   UNL A   1     -51.789  43.797   7.978  1.00  0.00    -0.348 OA
BRANCH  19  20
ATOM     20  C   UNL A   1     -52.600  42.637   8.152  1.00  0.00     0.180 C 
BRANCH  20  21
ATOM     21  C   UNL A   1     -52.002  41.494   7.405  1.00  0.00     0.010 A 
ATOM     22  C   UNL A   1     -50.523  41.472   7.173  1.00  0.00     0.007 A 
ATOM     23  C   UNL A   1     -51.147  40.512   8.142  1.00  0.00     0.007 A 
ENDBRANCH  20  21
ENDBRANCH  19  20
ENDBRANCH  15  19
BRANCH  16  24
ATOM     24  O   UNL A   1     -52.132  44.597   5.339  1.00  0.00    -0.287 OA
BRANCH  24  25
ATOM     25  C   UNL A   1     -52.183  45.152   4.030  1.00  0.00     0.505 C 
ATOM     26  F   UNL A   1     -51.085  44.716   3.359  1.00  0.00    -0.184 F 
ATOM     27  F   UNL A   1     -53.259  44.650   3.377  1.00  0.00    -0.184 F 
ENDBRANCH  24  25
ENDBRANCH  16  24
ENDBRANCH  10  13
ENDBRANCH   4   9
TORSDOF 7
ENDMDL
MODEL 5
REMARK VINA RESULT:     -21.5      4.385      6.780
REMARK  7 active torsions:
REMARK  status: ('A' for Active; 'I' for Inactive)
REMARK    1  A    between atoms: O_5  and  C_13 
REMARK    2  A    between atoms: O_5  and  C_14 
REMARK    3  A    between atoms: O_6  and  C_15 
REMARK    4  A    between atoms: O_6  and  C_22 
REMARK       I    between atoms: N_8  and  C_20 
REMARK    5  A    between atoms: N_8  and  C_21 
REMARK    6  A    between atoms: C_10  and  C_13 
REMARK    7  A    between atoms: C_17  and  C_20 
ROOT
ATOM      1 CL   UNL A   1     -52.198  42.306  11.690  1.00  0.00    -0.080 Cl
ATOM      2 CL   UNL A   1     -51.794  43.327   6.333  1.00  0.00    -0.080 Cl
ATOM      3  N   UNL A   1     -50.831  40.210   8.603  1.00  0.00    -0.270 NA
ATOM      4  C   UNL A   1     -51.954  42.722   8.997  1.00  0.00     0.081 A 
ATOM      5  C   UNL A   1     -51.767  41.881  10.078  1.00  0.00     0.080 A 
ATOM      6  C   UNL A   1     -51.589  42.330   7.722  1.00  0.00     0.080 A 
ATOM      7  C   UNL A   1     -51.203  40.640   9.830  1.00  0.00     0.142 A 
ATOM      8  C   UNL A   1     -51.033  41.069   7.579  1.00  0.00     0.142 A 
ENDROOT
BRANCH   4   9
ATOM      9  N   UNL A   1     -52.527  44.002   9.197  1.00  0.00    -0.320 N 
ATOM     10  C   UNL A   1     -53.881  44.363   9.187  1.00  0.00     0.256 C 
ATOM     11  O   UNL A   1     -54.826  43.581   8.992  1.00  0.00    -0.267 OA
ATOM     12  H   UNL A   1     -51.890  44.733   9.366  1.00  0.00     0.169 HD
BRANCH  10  13
ATOM     13  C   UNL A   1     -54.163  45.774   9.399  1.00  0.00     0.035 A 
ATOM     14  C   UNL A   1     -53.393  46.512  10.299  1.00  0.00     0.056 A 
ATOM     15  C   UNL A   1     -53.665  47.865  10.502  1.00  0.00     0.103 A 
ATOM     16  C   UNL A   1     -54.706  48.480   9.807  1.00  0.00     0.108 A 
ATOM     17  C   UNL A   1     -55.476  47.742   8.908  1.00  0.00     0.041 A 
ATOM     18  C   UNL A   1     -55.204  46.389   8.704  1.00  0.00     0.020 A 
BRANCH  15  19
ATOM     19  O   UNL A   1     -52.907  48.575  11.383  1.00  0.00    -0.348 OA
BRANCH  19  20
ATOM     20  C   UNL A   1     -52.974  48.189  12.754  1.00  0.00     0.180 C 
BRANCH  20  21
ATOM     21  C   UNL A   1     -53.699  49.234  13.531  1.00  0.00     0.010 A 
ATOM     22  C   UNL A   1     -52.918  50.154  14.418  1.00  0.00     0.007 A 
ATOM     23  C   UNL A   1     -53.531  50.671  13.150  1.00  0.00     0.007 A 
ENDBRANCH  20  21
ENDBRANCH  19  20
ENDBRANCH  15  19
BRANCH  16  24
ATOM     24  O   UNL A   1     -54.980  49.801   9.997  1.00  0.00    -0.287 OA
BRANCH  24  25
ATOM     25  C   UNL A   1     -54.290  50.735   9.177  1.00  0.00     0.505 C 
ATOM     26  F   UNL A   1     -53.684  51.632   9.999  1.00  0.00    -0.184 F 
ATOM     27  F   UNL A   1     -53.300  50.095   8.509  1.00  0.00    -0.184 F 
ENDBRANCH  24  25
ENDBRANCH  16  24
ENDBRANCH  10  13
ENDBRANCH   4   9
TORSDOF 7
ENDMDL
MODEL 6
REMARK VINA RESULT:     -21.5      3.364      6.214
REMARK  7 active torsions:
REMARK  status: ('A' for Active; 'I' for Inactive)
REMARK    1  A    between atoms: O_5  and  C_13 
REMARK    2  A    between atoms: O_5  and  C_14 
REMARK    3  A    between atoms: O_6  and  C_15 
REMARK    4  A    between atoms: O_6  and  C_22 
REMARK       I    between atoms: N_8  and  C_20 
REMARK    5  A    between atoms: N_8  and  C_21 
REMARK    6  A    between atoms: C_10  and  C_13 
REMARK    7  A    between atoms: C_17  and  C_20 
ROOT
ATOM      1 CL   UNL A   1     -49.861  45.480   9.889  1.00  0.00    -0.080 Cl
ATOM      2 CL   UNL A   1     -55.221  44.802   9.037  1.00  0.00    -0.080 Cl
ATOM      3  N   UNL A   1     -52.018  42.601   8.201  1.00  0.00    -0.270 NA
ATOM      4  C   UNL A   1     -52.521  45.049   9.417  1.00  0.00     0.081 A 
ATOM      5  C   UNL A   1     -51.220  44.597   9.306  1.00  0.00     0.080 A 
ATOM      6  C   UNL A   1     -53.577  44.299   8.931  1.00  0.00     0.080 A 
ATOM      7  C   UNL A   1     -51.021  43.372   8.691  1.00  0.00     0.142 A 
ATOM      8  C   UNL A   1     -53.273  43.086   8.334  1.00  0.00     0.142 A 
ENDROOT
BRANCH   4   9
ATOM      9  N   UNL A   1     -52.778  46.296  10.038  1.00  0.00    -0.320 N 
ATOM     10  C   UNL A   1     -52.707  46.625  11.399  1.00  0.00     0.256 C 
ATOM     11  O   UNL A   1     -52.393  45.838  12.307  1.00  0.00    -0.267 OA
ATOM     12  H   UNL A   1     -53.042  47.027   9.434  1.00  0.00     0.169 HD
BRANCH  10  13
ATOM     13  C   UNL A   1     -53.057  47.995  11.740  1.00  0.00     0.035 A 
ATOM     14  C   UNL A   1     -52.982  48.425  13.065  1.00  0.00     0.056 A 
ATOM     15  C   UNL A   1     -53.319  49.738  13.391  1.00  0.00     0.103 A 
ATOM     16  C   UNL A   1     -53.732  50.621  12.394  1.00  0.00     0.108 A 
ATOM     17  C   UNL A   1     -53.808  50.191  11.069  1.00  0.00     0.041 A 
ATOM     18  C   UNL A   1     -53.471  48.878  10.742  1.00  0.00     0.020 A 
BRANCH  15  19
ATOM     19  O   UNL A   1     -53.242  50.148  14.688  1.00  0.00    -0.348 OA
BRANCH  19  20
ATOM     20  C   UNL A   1     -52.444  49.360  15.570  1.00  0.00     0.180 C 
BRANCH  20  21
ATOM     21  C   UNL A   1     -53.015  47.987  15.666  1.00  0.00     0.010 A 
ATOM     22  C   UNL A   1     -52.575  47.093  16.783  1.00  0.00     0.007 A 
ATOM     23  C   UNL A   1     -53.960  47.669  16.782  1.00  0.00     0.007 A 
ENDBRANCH  20  21
ENDBRANCH  19  20
ENDBRANCH  15  19
BRANCH  16  24
ATOM     24  O   UNL A   1     -54.063  51.907  12.700  1.00  0.00    -0.287 OA
BRANCH  24  25
ATOM     25  C   UNL A   1     -53.619  52.925  11.812  1.00  0.00     0.505 C 
ATOM     26  F   UNL A   1     -53.746  52.449  10.546  1.00  0.00    -0.184 F 
ATOM     27  F   UNL A   1     -54.450  53.992  11.908  1.00  0.00    -0.184 F 
ENDBRANCH  24  25
ENDBRANCH  16  24
ENDBRANCH  10  13
ENDBRANCH   4   9
TORSDOF 7
ENDMDL
MODEL 7
REMARK VINA RESULT:     -21.3      4.182      7.429
REMARK  7 active torsions:
REMARK  status: ('A' for Active; 'I' for Inactive)
REMARK    1  A    between atoms: O_5  and  C_13 
REMARK    2  A    between atoms: O_5  and  C_14 
REMARK    3  A    between atoms: O_6  and  C_15 
REMARK    4  A    between atoms: O_6  and  C_22 
REMARK       I    between atoms: N_8  and  C_20 
REMARK    5  A    between atoms: N_8  and  C_21 
REMARK    6  A    between atoms: C_10  and  C_13 
REMARK    7  A    between atoms: C_17  and  C_20 
ROOT
ATOM      1 CL   UNL A   1     -51.792  42.737   9.296  1.00  0.00    -0.080 Cl
ATOM      2 CL   UNL A   1     -52.586  46.512   5.419  1.00  0.00    -0.080 Cl
ATOM      3  N   UNL A   1     -51.626  42.656   5.326  1.00  0.00    -0.270 NA
ATOM      4  C   UNL A   1     -52.169  44.553   7.284  1.00  0.00     0.081 A 
ATOM      5  C   UNL A   1     -51.861  43.258   7.656  1.00  0.00     0.080 A 
ATOM      6  C   UNL A   1     -52.209  44.918   5.951  1.00  0.00     0.080 A 
ATOM      7  C   UNL A   1     -51.598  42.350   6.643  1.00  0.00     0.142 A 
ATOM      8  C   UNL A   1     -51.931  43.936   5.014  1.00  0.00     0.142 A 
ENDROOT
BRANCH   4   9
ATOM      9  N   UNL A   1     -52.446  45.520   8.282  1.00  0.00    -0.320 N 
ATOM     10  C   UNL A   1     -53.690  46.018   8.692  1.00  0.00     0.256 C 
ATOM     11  O   UNL A   1     -54.787  45.673   8.222  1.00  0.00    -0.267 OA
ATOM     12  H   UNL A   1     -51.662  45.890   8.748  1.00  0.00     0.169 HD
BRANCH  10  13
ATOM     13  C   UNL A   1     -53.655  47.035   9.732  1.00  0.00     0.035 A 
ATOM     14  C   UNL A   1     -52.888  46.833  10.879  1.00  0.00     0.056 A 
ATOM     15  C   UNL A   1     -52.856  47.808  11.876  1.00  0.00     0.103 A 
ATOM     16  C   UNL A   1     -53.591  48.984  11.726  1.00  0.00     0.108 A 
ATOM     17  C   UNL A   1     -54.358  49.186  10.579  1.00  0.00     0.041 A 
ATOM     18  C   UNL A   1     -54.390  48.211   9.581  1.00  0.00     0.020 A 
BRANCH  15  19
ATOM     19  O   UNL A   1     -52.104  47.600  12.992  1.00  0.00    -0.348 OA
BRANCH  19  20
ATOM     20  C   UNL A   1     -52.489  46.521  13.842  1.00  0.00     0.180 C 
BRANCH  20  21
ATOM     21  C   UNL A   1     -52.438  46.964  15.264  1.00  0.00     0.010 A 
ATOM     22  C   UNL A   1     -51.689  48.213  15.610  1.00  0.00     0.007 A 
ATOM     23  C   UNL A   1     -53.188  48.194  15.669  1.00  0.00     0.007 A 
ENDBRANCH  20  21
ENDBRANCH  19  20
ENDBRANCH  15  19
BRANCH  16  24
ATOM     24  O   UNL A   1     -53.566  49.944  12.692  1.00  0.00    -0.287 OA
BRANCH  24  25
ATOM     25  C   UNL A   1     -53.907  51.269  12.305  1.00  0.00     0.505 C 
ATOM     26  F   UNL A   1     -53.164  52.120  13.060  1.00  0.00    -0.184 F 
ATOM     27  F   UNL A   1     -53.532  51.467  11.018  1.00  0.00    -0.184 F 
ENDBRANCH  24  25
ENDBRANCH  16  24
ENDBRANCH  10  13
ENDBRANCH   4   9
TORSDOF 7
ENDMDL
MODEL 8
REMARK VINA RESULT:     -21.2      3.994      6.582
REMARK  7 active torsions:
REMARK  status: ('A' for Active; 'I' for Inactive)
REMARK    1  A    between atoms: O_5  and  C_13 
REMARK    2  A    between atoms: O_5  and  C_14 
REMARK    3  A    between atoms: O_6  and  C_15 
REMARK    4  A    between atoms: O_6  and  C_22 
REMARK       I    between atoms: N_8  and  C_20 
REMARK    5  A    between atoms: N_8  and  C_21 
REMARK    6  A    between atoms: C_10  and  C_13 
REMARK    7  A    between atoms: C_17  and  C_20 
ROOT
ATOM      1 CL   UNL A   1     -51.800  44.191   5.772  1.00  0.00    -0.080 Cl
ATOM      2 CL   UNL A   1     -52.453  43.277  11.125  1.00  0.00    -0.080 Cl
ATOM      3  N   UNL A   1     -51.265  41.005   8.088  1.00  0.00    -0.270 NA
ATOM      4  C   UNL A   1     -52.095  43.635   8.435  1.00  0.00     0.081 A 
ATOM      5  C   UNL A   1     -51.748  43.191   7.173  1.00  0.00     0.080 A 
ATOM      6  C   UNL A   1     -52.035  42.789   9.527  1.00  0.00     0.080 A 
ATOM      7  C   UNL A   1     -51.341  41.872   7.052  1.00  0.00     0.142 A 
ATOM      8  C   UNL A   1     -51.615  41.488   9.301  1.00  0.00     0.142 A 
ENDROOT
BRANCH   4   9
ATOM      9  N   UNL A   1     -52.518  44.975   8.613  1.00  0.00    -0.320 N 
ATOM     10  C   UNL A   1     -51.794  46.057   9.135  1.00  0.00     0.256 C 
ATOM     11  O   UNL A   1     -50.621  46.001   9.539  1.00  0.00    -0.267 OA
ATOM     12  H   UNL A   1     -53.440  45.173   8.333  1.00  0.00     0.169 HD
BRANCH  10  13
ATOM     13  C   UNL A   1     -52.512  47.319   9.218  1.00  0.00     0.035 A 
ATOM     14  C   UNL A   1     -53.054  47.734  10.435  1.00  0.00     0.056 A 
ATOM     15  C   UNL A   1     -53.743  48.945  10.514  1.00  0.00     0.103 A 
ATOM     16  C   UNL A   1     -53.890  49.739   9.378  1.00  0.00     0.108 A 
ATOM     17  C   UNL A   1     -53.349  49.324   8.161  1.00  0.00     0.041 A 
ATOM     18  C   UNL A   1     -52.659  48.114   8.082  1.00  0.00     0.020 A 
BRANCH  15  19
ATOM     19  O   UNL A   1     -54.268  49.340  11.707  1.00  0.00    -0.348 OA
BRANCH  19  20
ATOM     20  C   UNL A   1     -53.368  49.916  12.652  1.00  0.00     0.180 C 
BRANCH  20  21
ATOM     21  C   UNL A   1     -53.612  49.324  13.998  1.00  0.00     0.010 A 
ATOM     22  C   UNL A   1     -52.744  48.197  14.464  1.00  0.00     0.007 A 
ATOM     23  C   UNL A   1     -52.612  49.556  15.086  1.00  0.00     0.007 A 
ENDBRANCH  20  21
ENDBRANCH  19  20
ENDBRANCH  15  19
BRANCH  16  24
ATOM     24  O   UNL A   1     -54.560  50.924   9.443  1.00  0.00    -0.287 OA
BRANCH  24  25
ATOM     25  C   UNL A   1     -53.790  52.098   9.668  1.00  0.00     0.505 C 
ATOM     26  F   UNL A   1     -54.497  53.151   9.182  1.00  0.00    -0.184 F 
ATOM     27  F   UNL A   1     -53.666  52.299  11.003  1.00  0.00    -0.184 F 
ENDBRANCH  24  25
ENDBRANCH  16  24
ENDBRANCH  10  13
ENDBRANCH   4   9
TORSDOF 7
ENDMDL
MODEL 9
REMARK VINA RESULT:     -21.1      3.545      4.753
REMARK  7 active torsions:
REMARK  status: ('A' for Active; 'I' for Inactive)
REMARK    1  A    between atoms: O_5  and  C_13 
REMARK    2  A    between atoms: O_5  and  C_14 
REMARK    3  A    between atoms: O_6  and  C_15 
REMARK    4  A    between atoms: O_6  and  C_22 
REMARK       I    between atoms: N_8  and  C_20 
REMARK    5  A    between atoms: N_8  and  C_21 
REMARK    6  A    between atoms: C_10  and  C_13 
REMARK    7  A    between atoms: C_17  and  C_20 
ROOT
ATOM      1 CL   UNL A   1     -50.756  44.040  14.804  1.00  0.00    -0.080 Cl
ATOM      2 CL   UNL A   1     -52.682  49.147  14.452  1.00  0.00    -0.080 Cl
ATOM      3  N   UNL A   1     -50.268  47.305  17.016  1.00  0.00    -0.270 NA
ATOM      4  C   UNL A   1     -51.666  46.619  14.715  1.00  0.00     0.081 A 
ATOM      5  C   UNL A   1     -50.900  45.665  15.356  1.00  0.00     0.080 A 
ATOM      6  C   UNL A   1     -51.747  47.910  15.202  1.00  0.00     0.080 A 
ATOM      7  C   UNL A   1     -50.222  46.056  16.500  1.00  0.00     0.142 A 
ATOM      8  C   UNL A   1     -51.031  48.202  16.352  1.00  0.00     0.142 A 
ENDROOT
BRANCH   4   9
ATOM      9  N   UNL A   1     -52.379  46.270  13.541  1.00  0.00    -0.320 N 
ATOM     10  C   UNL A   1     -51.880  46.055  12.248  1.00  0.00     0.256 C 
ATOM     11  O   UNL A   1     -50.685  46.143  11.922  1.00  0.00    -0.267 OA
ATOM     12  H   UNL A   1     -53.352  46.164  13.647  1.00  0.00     0.169 HD
BRANCH  10  13
ATOM     13  C   UNL A   1     -52.869  45.732  11.232  1.00  0.00     0.035 A 
ATOM     14  C   UNL A   1     -53.388  46.740  10.419  1.00  0.00     0.056 A 
ATOM     15  C   UNL A   1     -54.337  46.429   9.445  1.00  0.00     0.103 A 
ATOM     16  C   UNL A   1     -54.768  45.113   9.285  1.00  0.00     0.108 A 
ATOM     17  C   UNL A   1     -54.249  44.105  10.098  1.00  0.00     0.041 A 
ATOM     18  C   UNL A   1     -53.300  44.416  11.072  1.00  0.00     0.020 A 
BRANCH  15  19
ATOM     19  O   UNL A   1     -54.837  47.421   8.656  1.00  0.00    -0.348 OA
BRANCH  19  20
ATOM     20  C   UNL A   1     -54.094  48.636   8.594  1.00  0.00     0.180 C 
BRANCH  20  21
ATOM     21  C   UNL A   1     -54.710  49.645   9.501  1.00  0.00     0.010 A 
ATOM     22  C   UNL A   1     -53.998  50.016  10.765  1.00  0.00     0.007 A 
ATOM     23  C   UNL A   1     -54.072  50.993   9.629  1.00  0.00     0.007 A 
ENDBRANCH  20  21
ENDBRANCH  19  20
ENDBRANCH  15  19
BRANCH  16  24
ATOM     24  O   UNL A   1     -55.693  44.797   8.336  1.00  0.00    -0.287 OA
BRANCH  24  25
ATOM     25  C   UNL A   1     -56.581  43.723   8.622  1.00  0.00     0.505 C 
ATOM     26  F   UNL A   1     -57.567  44.209   9.420  1.00  0.00    -0.184 F 
ATOM     27  F   UNL A   1     -57.178  43.322   7.473  1.00  0.00    -0.184 F 
ENDBRANCH  24  25
ENDBRANCH  16  24
ENDBRANCH  10  13
ENDBRANCH   4   9
TORSDOF 7
ENDMDL
