MODEL 1
REMARK VINA RESULT:      -9.0      0.000      0.000
REMARK  7 active torsions:
REMARK  status: ('A' for Active; 'I' for Inactive)
REMARK    1  A    between atoms: O_5  and  C_13 
REMARK    2  A    between atoms: O_5  and  C_14 
REMARK    3  A    between atoms: O_6  and  C_15 
REMARK    4  A    between atoms: O_6  and  C_22 
REMARK       I    between atoms: N_8  and  C_20 
REMARK    5  A    between atoms: N_8  and  C_21 
REMARK    6  A    between atoms: C_10  and  C_13 
REMARK    7  A    between atoms: C_17  and  C_20 
ROOT
ATOM      1 CL   UNL A   1     -52.461  42.736   8.976  1.00  0.00    -0.080 Cl
ATOM      2 CL   UNL A   1     -55.561  44.898   5.023  1.00  0.00    -0.080 Cl
ATOM      3  N   UNL A   1     -53.832  41.352   5.512  1.00  0.00    -0.270 NA
ATOM      4  C   UNL A   1     -54.004  43.727   6.946  1.00  0.00     0.081 A 
ATOM      5  C   UNL A   1     -53.281  42.669   7.463  1.00  0.00     0.080 A 
ATOM      6  C   UNL A   1     -54.644  43.620   5.724  1.00  0.00     0.080 A 
ATOM      7  C   UNL A   1     -53.225  41.508   6.710  1.00  0.00     0.142 A 
ATOM      8  C   UNL A   1     -54.528  42.416   5.049  1.00  0.00     0.142 A 
ENDROOT
BRANCH   4   9
ATOM      9  N   UNL A   1     -54.093  44.937   7.677  1.00  0.00    -0.320 N 
ATOM     10  C   UNL A   1     -55.225  45.524   8.260  1.00  0.00     0.256 C 
ATOM     11  O   UNL A   1     -56.372  45.051   8.223  1.00  0.00    -0.267 OA
ATOM     12  H   UNL A   1     -53.249  45.431   7.790  1.00  0.00     0.169 HD
BRANCH  10  13
ATOM     13  C   UNL A   1     -55.006  46.797   8.930  1.00  0.00     0.035 A 
ATOM     14  C   UNL A   1     -53.931  46.947   9.807  1.00  0.00     0.056 A 
ATOM     15  C   UNL A   1     -53.723  48.167  10.450  1.00  0.00     0.103 A 
ATOM     16  C   UNL A   1     -54.588  49.236  10.217  1.00  0.00     0.108 A 
ATOM     17  C   UNL A   1     -55.663  49.085   9.340  1.00  0.00     0.041 A 
ATOM     18  C   UNL A   1     -55.871  47.865   8.697  1.00  0.00     0.020 A 
BRANCH  15  19
ATOM     19  O   UNL A   1     -52.671  48.304  11.304  1.00  0.00    -0.348 OA
BRANCH  19  20
ATOM     20  C   UNL A   1     -51.829  47.166  11.482  1.00  0.00     0.180 C 
BRANCH  20  21
ATOM     21  C   UNL A   1     -51.563  46.965  12.935  1.00  0.00     0.010 A 
ATOM     22  C   UNL A   1     -52.715  46.707  13.856  1.00  0.00     0.007 A 
ATOM     23  C   UNL A   1     -51.753  45.604  13.527  1.00  0.00     0.007 A 
ENDBRANCH  20  21
ENDBRANCH  19  20
ENDBRANCH  15  19
BRANCH  16  24
ATOM     24  O   UNL A   1     -54.394  50.433  10.838  1.00  0.00    -0.287 OA
BRANCH  24  25
ATOM     25  C   UNL A   1     -54.251  51.582  10.012  1.00  0.00     0.505 C 
ATOM     26  F   UNL A   1     -53.643  52.545  10.753  1.00  0.00    -0.184 F 
ATOM     27  F   UNL A   1     -53.409  51.293   8.990  1.00  0.00    -0.184 F 
ENDBRANCH  24  25
ENDBRANCH  16  24
ENDBRANCH  10  13
ENDBRANCH   4   9
TORSDOF 7
ENDMDL
MODEL 2
REMARK VINA RESULT:      -8.6      2.363      2.861
REMARK  7 active torsions:
REMARK  status: ('A' for Active; 'I' for Inactive)
REMARK    1  A    between atoms: O_5  and  C_13 
REMARK    2  A    between atoms: O_5  and  C_14 
REMARK    3  A    between atoms: O_6  and  C_15 
REMARK    4  A    between atoms: O_6  and  C_22 
REMARK       I    between atoms: N_8  and  C_20 
REMARK    5  A    between atoms: N_8  and  C_21 
REMARK    6  A    between atoms: C_10  and  C_13 
REMARK    7  A    between atoms: C_17  and  C_20 
ROOT
ATOM      1 CL   UNL A   1     -52.113  41.392  11.681  1.00  0.00    -0.080 Cl
ATOM      2 CL   UNL A   1     -51.001  43.055   6.591  1.00  0.00    -0.080 Cl
ATOM      3  N   UNL A   1     -50.528  39.604   8.505  1.00  0.00    -0.270 NA
ATOM      4  C   UNL A   1     -51.520  42.128   9.113  1.00  0.00     0.081 A 
ATOM      5  C   UNL A   1     -51.521  41.143  10.083  1.00  0.00     0.080 A 
ATOM      6  C   UNL A   1     -51.031  41.875   7.845  1.00  0.00     0.080 A 
ATOM      7  C   UNL A   1     -51.016  39.902   9.731  1.00  0.00     0.142 A 
ATOM      8  C   UNL A   1     -50.548  40.601   7.592  1.00  0.00     0.142 A 
ENDROOT
BRANCH   4   9
ATOM      9  N   UNL A   1     -52.026  43.415   9.422  1.00  0.00    -0.320 N 
ATOM     10  C   UNL A   1     -53.238  43.995   9.025  1.00  0.00     0.256 C 
ATOM     11  O   UNL A   1     -54.091  43.444   8.308  1.00  0.00    -0.267 OA
ATOM     12  H   UNL A   1     -51.450  43.975   9.992  1.00  0.00     0.169 HD
BRANCH  10  13
ATOM     13  C   UNL A   1     -53.472  45.356   9.483  1.00  0.00     0.035 A 
ATOM     14  C   UNL A   1     -52.740  45.866  10.555  1.00  0.00     0.056 A 
ATOM     15  C   UNL A   1     -52.965  47.170  10.994  1.00  0.00     0.103 A 
ATOM     16  C   UNL A   1     -53.921  47.964  10.362  1.00  0.00     0.108 A 
ATOM     17  C   UNL A   1     -54.654  47.454   9.290  1.00  0.00     0.041 A 
ATOM     18  C   UNL A   1     -54.428  46.149   8.850  1.00  0.00     0.020 A 
BRANCH  15  19
ATOM     19  O   UNL A   1     -52.244  47.658  12.042  1.00  0.00    -0.348 OA
BRANCH  19  20
ATOM     20  C   UNL A   1     -51.164  46.856  12.515  1.00  0.00     0.180 C 
BRANCH  20  21
ATOM     21  C   UNL A   1     -51.319  46.625  13.979  1.00  0.00     0.010 A 
ATOM     22  C   UNL A   1     -52.577  47.071  14.656  1.00  0.00     0.007 A 
ATOM     23  C   UNL A   1     -52.311  45.609  14.453  1.00  0.00     0.007 A 
ENDBRANCH  20  21
ENDBRANCH  19  20
ENDBRANCH  15  19
BRANCH  16  24
ATOM     24  O   UNL A   1     -54.149  49.240  10.781  1.00  0.00    -0.287 OA
BRANCH  24  25
ATOM     25  C   UNL A   1     -54.138  50.264   9.794  1.00  0.00     0.505 C 
ATOM     26  F   UNL A   1     -55.422  50.464   9.397  1.00  0.00    -0.184 F 
ATOM     27  F   UNL A   1     -53.724  51.423  10.360  1.00  0.00    -0.184 F 
ENDBRANCH  24  25
ENDBRANCH  16  24
ENDBRANCH  10  13
ENDBRANCH   4   9
TORSDOF 7
ENDMDL
MODEL 3
REMARK VINA RESULT:      -8.6      4.434      7.765
REMARK  7 active torsions:
REMARK  status: ('A' for Active; 'I' for Inactive)
REMARK    1  A    between atoms: O_5  and  C_13 
REMARK    2  A    between atoms: O_5  and  C_14 
REMARK    3  A    between atoms: O_6  and  C_15 
REMARK    4  A    between atoms: O_6  and  C_22 
REMARK       I    between atoms: N_8  and  C_20 
REMARK    5  A    between atoms: N_8  and  C_21 
REMARK    6  A    between atoms: C_10  and  C_13 
REMARK    7  A    between atoms: C_17  and  C_20 
ROOT
ATOM      1 CL   UNL A   1     -48.660  47.200  13.059  1.00  0.00    -0.080 Cl
ATOM      2 CL   UNL A   1     -53.482  47.824  15.564  1.00  0.00    -0.080 Cl
ATOM      3  N   UNL A   1     -49.716  48.392  16.700  1.00  0.00    -0.270 NA
ATOM      4  C   UNL A   1     -51.022  47.543  14.398  1.00  0.00     0.081 A 
ATOM      5  C   UNL A   1     -49.642  47.615  14.412  1.00  0.00     0.080 A 
ATOM      6  C   UNL A   1     -51.762  47.888  15.514  1.00  0.00     0.080 A 
ATOM      7  C   UNL A   1     -49.038  48.043  15.584  1.00  0.00     0.142 A 
ATOM      8  C   UNL A   1     -51.063  48.305  16.636  1.00  0.00     0.142 A 
ENDROOT
BRANCH   4   9
ATOM      9  N   UNL A   1     -51.688  47.112  13.225  1.00  0.00    -0.320 N 
ATOM     10  C   UNL A   1     -52.022  45.806  12.840  1.00  0.00     0.256 C 
ATOM     11  O   UNL A   1     -51.774  44.783  13.500  1.00  0.00    -0.267 OA
ATOM     12  H   UNL A   1     -51.950  47.823  12.597  1.00  0.00     0.169 HD
BRANCH  10  13
ATOM     13  C   UNL A   1     -52.687  45.673  11.554  1.00  0.00     0.035 A 
ATOM     14  C   UNL A   1     -52.904  46.801  10.762  1.00  0.00     0.056 A 
ATOM     15  C   UNL A   1     -53.543  46.673   9.528  1.00  0.00     0.103 A 
ATOM     16  C   UNL A   1     -53.964  45.418   9.087  1.00  0.00     0.108 A 
ATOM     17  C   UNL A   1     -53.746  44.291   9.879  1.00  0.00     0.041 A 
ATOM     18  C   UNL A   1     -53.108  44.419  11.113  1.00  0.00     0.020 A 
BRANCH  15  19
ATOM     19  O   UNL A   1     -53.751  47.780   8.763  1.00  0.00    -0.348 OA
BRANCH  19  20
ATOM     20  C   UNL A   1     -53.024  48.956   9.114  1.00  0.00     0.180 C 
BRANCH  20  21
ATOM     21  C   UNL A   1     -53.928  49.910   9.815  1.00  0.00     0.010 A 
ATOM     22  C   UNL A   1     -54.135  51.275   9.235  1.00  0.00     0.007 A 
ATOM     23  C   UNL A   1     -55.241  50.262   9.187  1.00  0.00     0.007 A 
ENDBRANCH  20  21
ENDBRANCH  19  20
ENDBRANCH  15  19
BRANCH  16  24
ATOM     24  O   UNL A   1     -54.588  45.281   7.884  1.00  0.00    -0.287 OA
BRANCH  24  25
ATOM     25  C   UNL A   1     -54.168  44.207   7.050  1.00  0.00     0.505 C 
ATOM     26  F   UNL A   1     -54.975  44.199   5.957  1.00  0.00    -0.184 F 
ATOM     27  F   UNL A   1     -52.914  44.457   6.601  1.00  0.00    -0.184 F 
ENDBRANCH  24  25
ENDBRANCH  16  24
ENDBRANCH  10  13
ENDBRANCH   4   9
TORSDOF 7
ENDMDL
MODEL 4
REMARK VINA RESULT:      -8.6      4.429      7.784
REMARK  7 active torsions:
REMARK  status: ('A' for Active; 'I' for Inactive)
REMARK    1  A    between atoms: O_5  and  C_13 
REMARK    2  A    between atoms: O_5  and  C_14 
REMARK    3  A    between atoms: O_6  and  C_15 
REMARK    4  A    between atoms: O_6  and  C_22 
REMARK       I    between atoms: N_8  and  C_20 
REMARK    5  A    between atoms: N_8  and  C_21 
REMARK    6  A    between atoms: C_10  and  C_13 
REMARK    7  A    between atoms: C_17  and  C_20 
ROOT
ATOM      1 CL   UNL A   1     -53.481  47.771  15.557  1.00  0.00    -0.080 Cl
ATOM      2 CL   UNL A   1     -48.666  47.189  13.028  1.00  0.00    -0.080 Cl
ATOM      3  N   UNL A   1     -49.713  48.342  16.685  1.00  0.00    -0.270 NA
ATOM      4  C   UNL A   1     -51.024  47.512  14.380  1.00  0.00     0.081 A 
ATOM      5  C   UNL A   1     -51.761  47.843  15.501  1.00  0.00     0.080 A 
ATOM      6  C   UNL A   1     -49.644  47.588  14.389  1.00  0.00     0.080 A 
ATOM      7  C   UNL A   1     -51.061  48.252  16.625  1.00  0.00     0.142 A 
ATOM      8  C   UNL A   1     -49.038  48.007  15.563  1.00  0.00     0.142 A 
ENDROOT
BRANCH   4   9
ATOM      9  N   UNL A   1     -51.692  47.087  13.205  1.00  0.00    -0.320 N 
ATOM     10  C   UNL A   1     -52.050  45.786  12.825  1.00  0.00     0.256 C 
ATOM     11  O   UNL A   1     -51.825  44.762  13.491  1.00  0.00    -0.267 OA
ATOM     12  H   UNL A   1     -51.938  47.800  12.572  1.00  0.00     0.169 HD
BRANCH  10  13
ATOM     13  C   UNL A   1     -52.710  45.660  11.535  1.00  0.00     0.035 A 
ATOM     14  C   UNL A   1     -52.894  46.786  10.733  1.00  0.00     0.056 A 
ATOM     15  C   UNL A   1     -53.528  46.664   9.496  1.00  0.00     0.103 A 
ATOM     16  C   UNL A   1     -53.979  45.417   9.063  1.00  0.00     0.108 A 
ATOM     17  C   UNL A   1     -53.795  44.291   9.866  1.00  0.00     0.041 A 
ATOM     18  C   UNL A   1     -53.161  44.413  11.102  1.00  0.00     0.020 A 
BRANCH  15  19
ATOM     19  O   UNL A   1     -53.703  47.769   8.721  1.00  0.00    -0.348 OA
BRANCH  19  20
ATOM     20  C   UNL A   1     -52.986  48.944   9.096  1.00  0.00     0.180 C 
BRANCH  20  21
ATOM     21  C   UNL A   1     -53.895  49.869   9.831  1.00  0.00     0.010 A 
ATOM     22  C   UNL A   1     -54.227  51.196   9.224  1.00  0.00     0.007 A 
ATOM     23  C   UNL A   1     -55.268  50.119   9.293  1.00  0.00     0.007 A 
ENDBRANCH  20  21
ENDBRANCH  19  20
ENDBRANCH  15  19
BRANCH  16  24
ATOM     24  O   UNL A   1     -54.599  45.285   7.857  1.00  0.00    -0.287 OA
BRANCH  24  25
ATOM     25  C   UNL A   1     -54.195  44.201   7.030  1.00  0.00     0.505 C 
ATOM     26  F   UNL A   1     -54.967  44.229   5.912  1.00  0.00    -0.184 F 
ATOM     27  F   UNL A   1     -52.918  44.405   6.622  1.00  0.00    -0.184 F 
ENDBRANCH  24  25
ENDBRANCH  16  24
ENDBRANCH  10  13
ENDBRANCH   4   9
TORSDOF 7
ENDMDL
MODEL 5
REMARK VINA RESULT:      -8.6      2.356      3.267
REMARK  7 active torsions:
REMARK  status: ('A' for Active; 'I' for Inactive)
REMARK    1  A    between atoms: O_5  and  C_13 
REMARK    2  A    between atoms: O_5  and  C_14 
REMARK    3  A    between atoms: O_6  and  C_15 
REMARK    4  A    between atoms: O_6  and  C_22 
REMARK       I    between atoms: N_8  and  C_20 
REMARK    5  A    between atoms: N_8  and  C_21 
REMARK    6  A    between atoms: C_10  and  C_13 
REMARK    7  A    between atoms: C_17  and  C_20 
ROOT
ATOM      1 CL   UNL A   1     -50.953  43.018   6.635  1.00  0.00    -0.080 Cl
ATOM      2 CL   UNL A   1     -52.229  41.352  11.685  1.00  0.00    -0.080 Cl
ATOM      3  N   UNL A   1     -50.557  39.561   8.556  1.00  0.00    -0.270 NA
ATOM      4  C   UNL A   1     -51.554  42.090   9.138  1.00  0.00     0.081 A 
ATOM      5  C   UNL A   1     -51.028  41.836   7.885  1.00  0.00     0.080 A 
ATOM      6  C   UNL A   1     -51.590  41.103  10.105  1.00  0.00     0.080 A 
ATOM      7  C   UNL A   1     -50.545  40.560   7.644  1.00  0.00     0.142 A 
ATOM      8  C   UNL A   1     -51.081  39.859   9.766  1.00  0.00     0.142 A 
ENDROOT
BRANCH   4   9
ATOM      9  N   UNL A   1     -52.061  43.378   9.435  1.00  0.00    -0.320 N 
ATOM     10  C   UNL A   1     -53.256  43.968   9.000  1.00  0.00     0.256 C 
ATOM     11  O   UNL A   1     -54.088  43.426   8.254  1.00  0.00    -0.267 OA
ATOM     12  H   UNL A   1     -51.500  43.932  10.025  1.00  0.00     0.169 HD
BRANCH  10  13
ATOM     13  C   UNL A   1     -53.494  45.329   9.455  1.00  0.00     0.035 A 
ATOM     14  C   UNL A   1     -52.704  45.875  10.466  1.00  0.00     0.056 A 
ATOM     15  C   UNL A   1     -52.934  47.180  10.903  1.00  0.00     0.103 A 
ATOM     16  C   UNL A   1     -53.954  47.938  10.329  1.00  0.00     0.108 A 
ATOM     17  C   UNL A   1     -54.745  47.392   9.318  1.00  0.00     0.041 A 
ATOM     18  C   UNL A   1     -54.514  46.087   8.881  1.00  0.00     0.020 A 
BRANCH  15  19
ATOM     19  O   UNL A   1     -52.157  47.702  11.891  1.00  0.00    -0.348 OA
BRANCH  19  20
ATOM     20  C   UNL A   1     -51.654  46.794  12.869  1.00  0.00     0.180 C 
BRANCH  20  21
ATOM     21  C   UNL A   1     -52.557  46.787  14.054  1.00  0.00     0.010 A 
ATOM     22  C   UNL A   1     -52.172  45.983  15.257  1.00  0.00     0.007 A 
ATOM     23  C   UNL A   1     -52.119  47.481  15.306  1.00  0.00     0.007 A 
ENDBRANCH  20  21
ENDBRANCH  19  20
ENDBRANCH  15  19
BRANCH  16  24
ATOM     24  O   UNL A   1     -54.188  49.213  10.746  1.00  0.00    -0.287 OA
BRANCH  24  25
ATOM     25  C   UNL A   1     -54.141  50.241   9.764  1.00  0.00     0.505 C 
ATOM     26  F   UNL A   1     -55.413  50.462   9.341  1.00  0.00    -0.184 F 
ATOM     27  F   UNL A   1     -53.721  51.392  10.344  1.00  0.00    -0.184 F 
ENDBRANCH  24  25
ENDBRANCH  16  24
ENDBRANCH  10  13
ENDBRANCH   4   9
TORSDOF 7
ENDMDL
MODEL 6
REMARK VINA RESULT:      -8.5      2.532      4.179
REMARK  7 active torsions:
REMARK  status: ('A' for Active; 'I' for Inactive)
REMARK    1  A    between atoms: O_5  and  C_13 
REMARK    2  A    between atoms: O_5  and  C_14 
REMARK    3  A    between atoms: O_6  and  C_15 
REMARK    4  A    between atoms: O_6  and  C_22 
REMARK       I    between atoms: N_8  and  C_20 
REMARK    5  A    between atoms: N_8  and  C_21 
REMARK    6  A    between atoms: C_10  and  C_13 
REMARK    7  A    between atoms: C_17  and  C_20 
ROOT
ATOM      1 CL   UNL A   1     -50.732  42.954   6.916  1.00  0.00    -0.080 Cl
ATOM      2 CL   UNL A   1     -55.875  44.812   6.928  1.00  0.00    -0.080 Cl
ATOM      3  N   UNL A   1     -53.786  42.563   4.404  1.00  0.00    -0.270 NA
ATOM      4  C   UNL A   1     -53.321  43.835   6.831  1.00  0.00     0.081 A 
ATOM      5  C   UNL A   1     -52.304  43.114   6.233  1.00  0.00     0.080 A 
ATOM      6  C   UNL A   1     -54.566  43.932   6.237  1.00  0.00     0.080 A 
ATOM      7  C   UNL A   1     -52.586  42.499   5.024  1.00  0.00     0.142 A 
ATOM      8  C   UNL A   1     -54.747  43.279   5.028  1.00  0.00     0.142 A 
ENDROOT
BRANCH   4   9
ATOM      9  N   UNL A   1     -53.084  44.483   8.068  1.00  0.00    -0.320 N 
ATOM     10  C   UNL A   1     -53.274  43.985   9.365  1.00  0.00     0.256 C 
ATOM     11  O   UNL A   1     -53.697  42.849   9.637  1.00  0.00    -0.267 OA
ATOM     12  H   UNL A   1     -52.742  45.404   8.009  1.00  0.00     0.169 HD
BRANCH  10  13
ATOM     13  C   UNL A   1     -52.966  44.904  10.449  1.00  0.00     0.035 A 
ATOM     14  C   UNL A   1     -53.210  46.269  10.297  1.00  0.00     0.056 A 
ATOM     15  C   UNL A   1     -52.913  47.149  11.337  1.00  0.00     0.103 A 
ATOM     16  C   UNL A   1     -52.373  46.666  12.528  1.00  0.00     0.108 A 
ATOM     17  C   UNL A   1     -52.129  45.301  12.681  1.00  0.00     0.041 A 
ATOM     18  C   UNL A   1     -52.426  44.420  11.640  1.00  0.00     0.020 A 
BRANCH  15  19
ATOM     19  O   UNL A   1     -53.155  48.480  11.178  1.00  0.00    -0.348 OA
BRANCH  19  20
ATOM     20  C   UNL A   1     -53.633  48.904   9.903  1.00  0.00     0.180 C 
BRANCH  20  21
ATOM     21  C   UNL A   1     -54.514  50.094  10.071  1.00  0.00     0.010 A 
ATOM     22  C   UNL A   1     -53.896  51.458  10.090  1.00  0.00     0.007 A 
ATOM     23  C   UNL A   1     -54.715  51.019   8.912  1.00  0.00     0.007 A 
ENDBRANCH  20  21
ENDBRANCH  19  20
ENDBRANCH  15  19
BRANCH  16  24
ATOM     24  O   UNL A   1     -52.080  47.516  13.552  1.00  0.00    -0.287 OA
BRANCH  24  25
ATOM     25  C   UNL A   1     -52.528  47.152  14.852  1.00  0.00     0.505 C 
ATOM     26  F   UNL A   1     -51.457  47.214  15.686  1.00  0.00    -0.184 F 
ATOM     27  F   UNL A   1     -53.414  48.078  15.292  1.00  0.00    -0.184 F 
ENDBRANCH  24  25
ENDBRANCH  16  24
ENDBRANCH  10  13
ENDBRANCH   4   9
TORSDOF 7
ENDMDL
MODEL 7
REMARK VINA RESULT:      -8.5      4.257      7.786
REMARK  7 active torsions:
REMARK  status: ('A' for Active; 'I' for Inactive)
REMARK    1  A    between atoms: O_5  and  C_13 
REMARK    2  A    between atoms: O_5  and  C_14 
REMARK    3  A    between atoms: O_6  and  C_15 
REMARK    4  A    between atoms: O_6  and  C_22 
REMARK       I    between atoms: N_8  and  C_20 
REMARK    5  A    between atoms: N_8  and  C_21 
REMARK    6  A    between atoms: C_10  and  C_13 
REMARK    7  A    between atoms: C_17  and  C_20 
ROOT
ATOM      1 CL   UNL A   1     -48.497  47.076  13.209  1.00  0.00    -0.080 Cl
ATOM      2 CL   UNL A   1     -53.047  48.250  16.007  1.00  0.00    -0.080 Cl
ATOM      3  N   UNL A   1     -49.195  48.131  16.977  1.00  0.00    -0.270 NA
ATOM      4  C   UNL A   1     -50.715  47.680  14.694  1.00  0.00     0.081 A 
ATOM      5  C   UNL A   1     -49.342  47.533  14.639  1.00  0.00     0.080 A 
ATOM      6  C   UNL A   1     -51.342  48.049  15.870  1.00  0.00     0.080 A 
ATOM      7  C   UNL A   1     -48.629  47.768  15.803  1.00  0.00     0.142 A 
ATOM      8  C   UNL A   1     -50.540  48.262  16.979  1.00  0.00     0.142 A 
ENDROOT
BRANCH   4   9
ATOM      9  N   UNL A   1     -51.490  47.451  13.530  1.00  0.00    -0.320 N 
ATOM     10  C   UNL A   1     -51.832  46.229  12.935  1.00  0.00     0.256 C 
ATOM     11  O   UNL A   1     -51.491  45.111  13.357  1.00  0.00    -0.267 OA
ATOM     12  H   UNL A   1     -51.833  48.257  13.081  1.00  0.00     0.169 HD
BRANCH  10  13
ATOM     13  C   UNL A   1     -52.624  46.314  11.719  1.00  0.00     0.035 A 
ATOM     14  C   UNL A   1     -53.021  45.150  11.062  1.00  0.00     0.056 A 
ATOM     15  C   UNL A   1     -53.781  45.233   9.895  1.00  0.00     0.103 A 
ATOM     16  C   UNL A   1     -54.143  46.480   9.385  1.00  0.00     0.108 A 
ATOM     17  C   UNL A   1     -53.746  47.644  10.042  1.00  0.00     0.041 A 
ATOM     18  C   UNL A   1     -52.987  47.561  11.209  1.00  0.00     0.020 A 
BRANCH  15  19
ATOM     19  O   UNL A   1     -54.163  44.089   9.261  1.00  0.00    -0.348 OA
BRANCH  19  20
ATOM     20  C   UNL A   1     -53.127  43.202   8.846  1.00  0.00     0.180 C 
BRANCH  20  21
ATOM     21  C   UNL A   1     -53.207  42.997   7.372  1.00  0.00     0.010 A 
ATOM     22  C   UNL A   1     -54.241  43.745   6.589  1.00  0.00     0.007 A 
ATOM     23  C   UNL A   1     -52.791  44.108   6.460  1.00  0.00     0.007 A 
ENDBRANCH  20  21
ENDBRANCH  19  20
ENDBRANCH  15  19
BRANCH  16  24
ATOM     24  O   UNL A   1     -54.885  46.573   8.247  1.00  0.00    -0.287 OA
BRANCH  24  25
ATOM     25  C   UNL A   1     -56.284  46.785   8.395  1.00  0.00     0.505 C 
ATOM     26  F   UNL A   1     -56.834  45.614   8.811  1.00  0.00    -0.184 F 
ATOM     27  F   UNL A   1     -56.496  47.684   9.387  1.00  0.00    -0.184 F 
ENDBRANCH  24  25
ENDBRANCH  16  24
ENDBRANCH  10  13
ENDBRANCH   4   9
TORSDOF 7
ENDMDL
MODEL 8
REMARK VINA RESULT:      -8.0      5.087      7.201
REMARK  7 active torsions:
REMARK  status: ('A' for Active; 'I' for Inactive)
REMARK    1  A    between atoms: O_5  and  C_13 
REMARK    2  A    between atoms: O_5  and  C_14 
REMARK    3  A    between atoms: O_6  and  C_15 
REMARK    4  A    between atoms: O_6  and  C_22 
REMARK       I    between atoms: N_8  and  C_20 
REMARK    5  A    between atoms: N_8  and  C_21 
REMARK    6  A    between atoms: C_10  and  C_13 
REMARK    7  A    between atoms: C_17  and  C_20 
ROOT
ATOM      1 CL   UNL A   1     -48.831  38.646   5.525  1.00  0.00    -0.080 Cl
ATOM      2 CL   UNL A   1     -48.339  40.299  10.716  1.00  0.00    -0.080 Cl
ATOM      3  N   UNL A   1     -46.347  37.688   8.476  1.00  0.00    -0.270 NA
ATOM      4  C   UNL A   1     -48.504  39.407   8.133  1.00  0.00     0.081 A 
ATOM      5  C   UNL A   1     -48.083  38.622   7.076  1.00  0.00     0.080 A 
ATOM      6  C   UNL A   1     -47.867  39.349   9.359  1.00  0.00     0.080 A 
ATOM      7  C   UNL A   1     -47.004  37.781   7.298  1.00  0.00     0.142 A 
ATOM      8  C   UNL A   1     -46.797  38.476   9.479  1.00  0.00     0.142 A 
ENDROOT
BRANCH   4   9
ATOM      9  N   UNL A   1     -49.602  40.285   7.958  1.00  0.00    -0.320 N 
ATOM     10  C   UNL A   1     -49.591  41.632   7.573  1.00  0.00     0.256 C 
ATOM     11  O   UNL A   1     -48.570  42.291   7.315  1.00  0.00    -0.267 OA
ATOM     12  H   UNL A   1     -50.491  39.896   8.130  1.00  0.00     0.169 HD
BRANCH  10  13
ATOM     13  C   UNL A   1     -50.889  42.284   7.505  1.00  0.00     0.035 A 
ATOM     14  C   UNL A   1     -50.973  43.676   7.533  1.00  0.00     0.056 A 
ATOM     15  C   UNL A   1     -52.218  44.301   7.469  1.00  0.00     0.103 A 
ATOM     16  C   UNL A   1     -53.380  43.534   7.377  1.00  0.00     0.108 A 
ATOM     17  C   UNL A   1     -53.296  42.142   7.349  1.00  0.00     0.041 A 
ATOM     18  C   UNL A   1     -52.050  41.517   7.413  1.00  0.00     0.020 A 
BRANCH  15  19
ATOM     19  O   UNL A   1     -52.288  45.661   7.497  1.00  0.00    -0.348 OA
BRANCH  19  20
ATOM     20  C   UNL A   1     -51.850  46.308   8.690  1.00  0.00     0.180 C 
BRANCH  20  21
ATOM     21  C   UNL A   1     -52.760  47.446   9.002  1.00  0.00     0.010 A 
ATOM     22  C   UNL A   1     -54.144  47.157   9.493  1.00  0.00     0.007 A 
ATOM     23  C   UNL A   1     -53.117  47.720  10.430  1.00  0.00     0.007 A 
ENDBRANCH  20  21
ENDBRANCH  19  20
ENDBRANCH  15  19
BRANCH  16  24
ATOM     24  O   UNL A   1     -54.602  44.133   7.312  1.00  0.00    -0.287 OA
BRANCH  24  25
ATOM     25  C   UNL A   1     -55.303  44.054   6.077  1.00  0.00     0.505 C 
ATOM     26  F   UNL A   1     -54.406  44.278   5.082  1.00  0.00    -0.184 F 
ATOM     27  F   UNL A   1     -55.762  42.791   5.906  1.00  0.00    -0.184 F 
ENDBRANCH  24  25
ENDBRANCH  16  24
ENDBRANCH  10  13
ENDBRANCH   4   9
TORSDOF 7
ENDMDL
MODEL 9
REMARK VINA RESULT:      -8.0      3.084      5.049
REMARK  7 active torsions:
REMARK  status: ('A' for Active; 'I' for Inactive)
REMARK    1  A    between atoms: O_5  and  C_13 
REMARK    2  A    between atoms: O_5  and  C_14 
REMARK    3  A    between atoms: O_6  and  C_15 
REMARK    4  A    between atoms: O_6  and  C_22 
REMARK       I    between atoms: N_8  and  C_20 
REMARK    5  A    between atoms: N_8  and  C_21 
REMARK    6  A    between atoms: C_10  and  C_13 
REMARK    7  A    between atoms: C_17  and  C_20 
ROOT
ATOM      1 CL   UNL A   1     -53.297  44.136   6.946  1.00  0.00    -0.080 Cl
ATOM      2 CL   UNL A   1     -48.532  42.544   9.108  1.00  0.00    -0.080 Cl
ATOM      3  N   UNL A   1     -50.342  41.820   5.645  1.00  0.00    -0.270 NA
ATOM      4  C   UNL A   1     -50.894  43.285   7.941  1.00  0.00     0.081 A 
ATOM      5  C   UNL A   1     -51.806  43.276   6.902  1.00  0.00     0.080 A 
ATOM      6  C   UNL A   1     -49.711  42.575   7.853  1.00  0.00     0.080 A 
ATOM      7  C   UNL A   1     -51.485  42.530   5.780  1.00  0.00     0.142 A 
ATOM      8  C   UNL A   1     -49.482  41.861   6.687  1.00  0.00     0.142 A 
ENDROOT
BRANCH   4   9
ATOM      9  N   UNL A   1     -51.175  44.032   9.111  1.00  0.00    -0.320 N 
ATOM     10  C   UNL A   1     -51.738  43.590  10.316  1.00  0.00     0.256 C 
ATOM     11  O   UNL A   1     -52.092  42.422  10.551  1.00  0.00    -0.267 OA
ATOM     12  H   UNL A   1     -50.944  44.989   9.072  1.00  0.00     0.169 HD
BRANCH  10  13
ATOM     13  C   UNL A   1     -51.931  44.606  11.338  1.00  0.00     0.035 A 
ATOM     14  C   UNL A   1     -52.374  45.879  10.980  1.00  0.00     0.056 A 
ATOM     15  C   UNL A   1     -52.559  46.854  11.960  1.00  0.00     0.103 A 
ATOM     16  C   UNL A   1     -52.299  46.556  13.298  1.00  0.00     0.108 A 
ATOM     17  C   UNL A   1     -51.856  45.283  13.656  1.00  0.00     0.041 A 
ATOM     18  C   UNL A   1     -51.672  44.308  12.675  1.00  0.00     0.020 A 
BRANCH  15  19
ATOM     19  O   UNL A   1     -52.992  48.094  11.600  1.00  0.00    -0.348 OA
BRANCH  19  20
ATOM     20  C   UNL A   1     -53.386  48.273  10.241  1.00  0.00     0.180 C 
BRANCH  20  21
ATOM     21  C   UNL A   1     -54.672  49.025  10.190  1.00  0.00     0.010 A 
ATOM     22  C   UNL A   1     -54.771  50.236   9.316  1.00  0.00     0.007 A 
ATOM     23  C   UNL A   1     -55.493  48.976   8.940  1.00  0.00     0.007 A 
ENDBRANCH  20  21
ENDBRANCH  19  20
ENDBRANCH  15  19
BRANCH  16  24
ATOM     24  O   UNL A   1     -52.476  47.500  14.265  1.00  0.00    -0.287 OA
BRANCH  24  25
ATOM     25  C   UNL A   1     -51.399  47.722  15.166  1.00  0.00     0.505 C 
ATOM     26  F   UNL A   1     -50.361  48.223  14.447  1.00  0.00    -0.184 F 
ATOM     27  F   UNL A   1     -51.753  48.683  16.054  1.00  0.00    -0.184 F 
ENDBRANCH  24  25
ENDBRANCH  16  24
ENDBRANCH  10  13
ENDBRANCH   4   9
TORSDOF 7
ENDMDL
