MODEL 1
REMARK VINA RESULT:     -23.1      0.000      0.000
REMARK  7 active torsions:
REMARK  status: ('A' for Active; 'I' for Inactive)
REMARK    1  A    between atoms: O_5  and  C_13 
REMARK    2  A    between atoms: O_5  and  C_14 
REMARK    3  A    between atoms: O_6  and  C_15 
REMARK    4  A    between atoms: O_6  and  C_22 
REMARK       I    between atoms: N_8  and  C_20 
REMARK    5  A    between atoms: N_8  and  C_21 
REMARK    6  A    between atoms: C_10  and  C_13 
REMARK    7  A    between atoms: C_17  and  C_20 
ROOT
ATOM      1 CL   UNL A   1     -49.296  46.915  14.546  1.00  0.00    -0.080 Cl
ATOM      2 CL   UNL A   1     -54.191  47.438  16.927  1.00  0.00    -0.080 Cl
ATOM      3  N   UNL A   1     -50.732  45.872  18.101  1.00  0.00    -0.270 NA
ATOM      4  C   UNL A   1     -51.706  47.129  15.822  1.00  0.00     0.081 A 
ATOM      5  C   UNL A   1     -50.391  46.706  15.858  1.00  0.00     0.080 A 
ATOM      6  C   UNL A   1     -52.544  46.935  16.905  1.00  0.00     0.080 A 
ATOM      7  C   UNL A   1     -49.954  46.084  17.016  1.00  0.00     0.142 A 
ATOM      8  C   UNL A   1     -52.010  46.304  18.017  1.00  0.00     0.142 A 
ENDROOT
BRANCH   4   9
ATOM      9  N   UNL A   1     -52.203  47.770  14.661  1.00  0.00    -0.320 N 
ATOM     10  C   UNL A   1     -52.698  49.075  14.528  1.00  0.00     0.256 C 
ATOM     11  O   UNL A   1     -52.779  49.904  15.449  1.00  0.00    -0.267 OA
ATOM     12  H   UNL A   1     -52.201  47.228  13.839  1.00  0.00     0.169 HD
BRANCH  10  13
ATOM     13  C   UNL A   1     -53.166  49.445  13.201  1.00  0.00     0.035 A 
ATOM     14  C   UNL A   1     -53.185  48.496  12.179  1.00  0.00     0.056 A 
ATOM     15  C   UNL A   1     -53.633  48.851  10.907  1.00  0.00     0.103 A 
ATOM     16  C   UNL A   1     -54.062  50.155  10.657  1.00  0.00     0.108 A 
ATOM     17  C   UNL A   1     -54.043  51.104  11.679  1.00  0.00     0.041 A 
ATOM     18  C   UNL A   1     -53.595  50.748  12.951  1.00  0.00     0.020 A 
BRANCH  15  19
ATOM     19  O   UNL A   1     -53.647  47.917   9.916  1.00  0.00    -0.348 OA
BRANCH  19  20
ATOM     20  C   UNL A   1     -52.432  47.212   9.673  1.00  0.00     0.180 C 
BRANCH  20  21
ATOM     21  C   UNL A   1     -52.113  47.255   8.218  1.00  0.00     0.010 A 
ATOM     22  C   UNL A   1     -53.174  47.684   7.253  1.00  0.00     0.007 A 
ATOM     23  C   UNL A   1     -52.007  48.583   7.537  1.00  0.00     0.007 A 
ENDBRANCH  20  21
ENDBRANCH  19  20
ENDBRANCH  15  19
BRANCH  16  24
ATOM     24  O   UNL A   1     -54.504  50.513   9.419  1.00  0.00    -0.287 OA
BRANCH  24  25
ATOM     25  C   UNL A   1     -54.103  51.786   8.926  1.00  0.00     0.505 C 
ATOM     26  F   UNL A   1     -53.713  52.534   9.991  1.00  0.00    -0.184 F 
ATOM     27  F   UNL A   1     -53.008  51.633   8.140  1.00  0.00    -0.184 F 
ENDBRANCH  24  25
ENDBRANCH  16  24
ENDBRANCH  10  13
ENDBRANCH   4   9
TORSDOF 7
ENDMDL
MODEL 2
REMARK VINA RESULT:     -23.1      0.112      1.779
REMARK  7 active torsions:
REMARK  status: ('A' for Active; 'I' for Inactive)
REMARK    1  A    between atoms: O_5  and  C_13 
REMARK    2  A    between atoms: O_5  and  C_14 
REMARK    3  A    between atoms: O_6  and  C_15 
REMARK    4  A    between atoms: O_6  and  C_22 
REMARK       I    between atoms: N_8  and  C_20 
REMARK    5  A    between atoms: N_8  and  C_21 
REMARK    6  A    between atoms: C_10  and  C_13 
REMARK    7  A    between atoms: C_17  and  C_20 
ROOT
ATOM      1 CL   UNL A   1     -54.195  47.468  16.859  1.00  0.00    -0.080 Cl
ATOM      2 CL   UNL A   1     -49.331  46.821  14.443  1.00  0.00    -0.080 Cl
ATOM      3  N   UNL A   1     -50.762  45.832  18.016  1.00  0.00    -0.270 NA
ATOM      4  C   UNL A   1     -51.727  47.097  15.737  1.00  0.00     0.081 A 
ATOM      5  C   UNL A   1     -52.559  46.929  16.827  1.00  0.00     0.080 A 
ATOM      6  C   UNL A   1     -50.420  46.645  15.765  1.00  0.00     0.080 A 
ATOM      7  C   UNL A   1     -52.031  46.293  17.939  1.00  0.00     0.142 A 
ATOM      8  C   UNL A   1     -49.988  46.021  16.924  1.00  0.00     0.142 A 
ENDROOT
BRANCH   4   9
ATOM      9  N   UNL A   1     -52.218  47.741  14.575  1.00  0.00    -0.320 N 
ATOM     10  C   UNL A   1     -52.738  49.037  14.448  1.00  0.00     0.256 C 
ATOM     11  O   UNL A   1     -52.852  49.853  15.377  1.00  0.00    -0.267 OA
ATOM     12  H   UNL A   1     -52.191  47.208  13.747  1.00  0.00     0.169 HD
BRANCH  10  13
ATOM     13  C   UNL A   1     -53.193  49.411  13.118  1.00  0.00     0.035 A 
ATOM     14  C   UNL A   1     -53.219  48.461  12.097  1.00  0.00     0.056 A 
ATOM     15  C   UNL A   1     -53.654  48.821  10.821  1.00  0.00     0.103 A 
ATOM     16  C   UNL A   1     -54.063  50.130  10.567  1.00  0.00     0.108 A 
ATOM     17  C   UNL A   1     -54.038  51.080  11.588  1.00  0.00     0.041 A 
ATOM     18  C   UNL A   1     -53.602  50.720  12.864  1.00  0.00     0.020 A 
BRANCH  15  19
ATOM     19  O   UNL A   1     -53.674  47.886   9.832  1.00  0.00    -0.348 OA
BRANCH  19  20
ATOM     20  C   UNL A   1     -52.445  47.224   9.540  1.00  0.00     0.180 C 
BRANCH  20  21
ATOM     21  C   UNL A   1     -52.213  47.229   8.068  1.00  0.00     0.010 A 
ATOM     22  C   UNL A   1     -53.277  47.774   7.166  1.00  0.00     0.007 A 
ATOM     23  C   UNL A   1     -52.001  48.536   7.370  1.00  0.00     0.007 A 
ENDBRANCH  20  21
ENDBRANCH  19  20
ENDBRANCH  15  19
BRANCH  16  24
ATOM     24  O   UNL A   1     -54.492  50.493   9.326  1.00  0.00    -0.287 OA
BRANCH  24  25
ATOM     25  C   UNL A   1     -54.060  51.754   8.829  1.00  0.00     0.505 C 
ATOM     26  F   UNL A   1     -53.716  52.520   9.898  1.00  0.00    -0.184 F 
ATOM     27  F   UNL A   1     -52.932  51.582   8.099  1.00  0.00    -0.184 F 
ENDBRANCH  24  25
ENDBRANCH  16  24
ENDBRANCH  10  13
ENDBRANCH   4   9
TORSDOF 7
ENDMDL
MODEL 3
REMARK VINA RESULT:     -22.6      1.238      1.512
REMARK  7 active torsions:
REMARK  status: ('A' for Active; 'I' for Inactive)
REMARK    1  A    between atoms: O_5  and  C_13 
REMARK    2  A    between atoms: O_5  and  C_14 
REMARK    3  A    between atoms: O_6  and  C_15 
REMARK    4  A    between atoms: O_6  and  C_22 
REMARK       I    between atoms: N_8  and  C_20 
REMARK    5  A    between atoms: N_8  and  C_21 
REMARK    6  A    between atoms: C_10  and  C_13 
REMARK    7  A    between atoms: C_17  and  C_20 
ROOT
ATOM      1 CL   UNL A   1     -49.403  46.796  14.234  1.00  0.00    -0.080 Cl
ATOM      2 CL   UNL A   1     -54.187  47.568  16.770  1.00  0.00    -0.080 Cl
ATOM      3  N   UNL A   1     -50.782  45.812  17.829  1.00  0.00    -0.270 NA
ATOM      4  C   UNL A   1     -51.758  47.132  15.586  1.00  0.00     0.081 A 
ATOM      5  C   UNL A   1     -50.467  46.639  15.579  1.00  0.00     0.080 A 
ATOM      6  C   UNL A   1     -52.571  46.977  16.694  1.00  0.00     0.080 A 
ATOM      7  C   UNL A   1     -50.028  45.988  16.721  1.00  0.00     0.142 A 
ATOM      8  C   UNL A   1     -52.037  46.312  17.786  1.00  0.00     0.142 A 
ENDROOT
BRANCH   4   9
ATOM      9  N   UNL A   1     -52.255  47.806  14.444  1.00  0.00    -0.320 N 
ATOM     10  C   UNL A   1     -52.776  49.104  14.354  1.00  0.00     0.256 C 
ATOM     11  O   UNL A   1     -52.886  49.896  15.305  1.00  0.00    -0.267 OA
ATOM     12  H   UNL A   1     -52.232  47.295  13.603  1.00  0.00     0.169 HD
BRANCH  10  13
ATOM     13  C   UNL A   1     -53.238  49.514  13.037  1.00  0.00     0.035 A 
ATOM     14  C   UNL A   1     -53.274  48.589  11.992  1.00  0.00     0.056 A 
ATOM     15  C   UNL A   1     -53.716  48.983  10.729  1.00  0.00     0.103 A 
ATOM     16  C   UNL A   1     -54.120  50.299  10.510  1.00  0.00     0.108 A 
ATOM     17  C   UNL A   1     -54.084  51.224  11.554  1.00  0.00     0.041 A 
ATOM     18  C   UNL A   1     -53.643  50.830  12.818  1.00  0.00     0.020 A 
BRANCH  15  19
ATOM     19  O   UNL A   1     -53.747  48.073   9.716  1.00  0.00    -0.348 OA
BRANCH  19  20
ATOM     20  C   UNL A   1     -55.000  47.447   9.445  1.00  0.00     0.180 C 
BRANCH  20  21
ATOM     21  C   UNL A   1     -54.769  46.151   8.747  1.00  0.00     0.010 A 
ATOM     22  C   UNL A   1     -54.425  44.940   9.557  1.00  0.00     0.007 A 
ATOM     23  C   UNL A   1     -55.772  45.052   8.906  1.00  0.00     0.007 A 
ENDBRANCH  20  21
ENDBRANCH  19  20
ENDBRANCH  15  19
BRANCH  16  24
ATOM     24  O   UNL A   1     -54.555  50.695   9.281  1.00  0.00    -0.287 OA
BRANCH  24  25
ATOM     25  C   UNL A   1     -54.012  51.899   8.752  1.00  0.00     0.505 C 
ATOM     26  F   UNL A   1     -53.632  52.673   9.802  1.00  0.00    -0.184 F 
ATOM     27  F   UNL A   1     -52.884  51.611   8.058  1.00  0.00    -0.184 F 
ENDBRANCH  24  25
ENDBRANCH  16  24
ENDBRANCH  10  13
ENDBRANCH   4   9
TORSDOF 7
ENDMDL
MODEL 4
REMARK VINA RESULT:     -21.9      1.600      1.979
REMARK  7 active torsions:
REMARK  status: ('A' for Active; 'I' for Inactive)
REMARK    1  A    between atoms: O_5  and  C_13 
REMARK    2  A    between atoms: O_5  and  C_14 
REMARK    3  A    between atoms: O_6  and  C_15 
REMARK    4  A    between atoms: O_6  and  C_22 
REMARK       I    between atoms: N_8  and  C_20 
REMARK    5  A    between atoms: N_8  and  C_21 
REMARK    6  A    between atoms: C_10  and  C_13 
REMARK    7  A    between atoms: C_17  and  C_20 
ROOT
ATOM      1 CL   UNL A   1     -49.012  47.327  14.595  1.00  0.00    -0.080 Cl
ATOM      2 CL   UNL A   1     -53.881  47.215  17.083  1.00  0.00    -0.080 Cl
ATOM      3  N   UNL A   1     -50.245  45.998  18.131  1.00  0.00    -0.270 NA
ATOM      4  C   UNL A   1     -51.403  47.225  15.922  1.00  0.00     0.081 A 
ATOM      5  C   UNL A   1     -50.048  46.948  15.917  1.00  0.00     0.080 A 
ATOM      6  C   UNL A   1     -52.190  46.898  17.011  1.00  0.00     0.080 A 
ATOM      7  C   UNL A   1     -49.519  46.336  17.041  1.00  0.00     0.142 A 
ATOM      8  C   UNL A   1     -51.565  46.289  18.087  1.00  0.00     0.142 A 
ENDROOT
BRANCH   4   9
ATOM      9  N   UNL A   1     -51.993  47.851  14.796  1.00  0.00    -0.320 N 
ATOM     10  C   UNL A   1     -52.413  47.267  13.593  1.00  0.00     0.256 C 
ATOM     11  O   UNL A   1     -52.329  46.059  13.319  1.00  0.00    -0.267 OA
ATOM     12  H   UNL A   1     -52.124  48.824  14.869  1.00  0.00     0.169 HD
BRANCH  10  13
ATOM     13  C   UNL A   1     -52.963  48.180  12.603  1.00  0.00     0.035 A 
ATOM     14  C   UNL A   1     -53.197  47.738  11.301  1.00  0.00     0.056 A 
ATOM     15  C   UNL A   1     -53.723  48.614  10.352  1.00  0.00     0.103 A 
ATOM     16  C   UNL A   1     -54.013  49.932  10.704  1.00  0.00     0.108 A 
ATOM     17  C   UNL A   1     -53.779  50.375  12.006  1.00  0.00     0.041 A 
ATOM     18  C   UNL A   1     -53.253  49.498  12.955  1.00  0.00     0.020 A 
BRANCH  15  19
ATOM     19  O   UNL A   1     -53.948  48.172   9.083  1.00  0.00    -0.348 OA
BRANCH  19  20
ATOM     20  C   UNL A   1     -55.106  47.366   8.874  1.00  0.00     0.180 C 
BRANCH  20  21
ATOM     21  C   UNL A   1     -54.691  45.982   8.511  1.00  0.00     0.010 A 
ATOM     22  C   UNL A   1     -54.390  45.003   9.604  1.00  0.00     0.007 A 
ATOM     23  C   UNL A   1     -55.631  44.848   8.776  1.00  0.00     0.007 A 
ENDBRANCH  20  21
ENDBRANCH  19  20
ENDBRANCH  15  19
BRANCH  16  24
ATOM     24  O   UNL A   1     -54.528  50.797   9.786  1.00  0.00    -0.287 OA
BRANCH  24  25
ATOM     25  C   UNL A   1     -53.718  51.900   9.401  1.00  0.00     0.505 C 
ATOM     26  F   UNL A   1     -53.241  51.643   8.155  1.00  0.00    -0.184 F 
ATOM     27  F   UNL A   1     -54.493  53.007   9.296  1.00  0.00    -0.184 F 
ENDBRANCH  24  25
ENDBRANCH  16  24
ENDBRANCH  10  13
ENDBRANCH   4   9
TORSDOF 7
ENDMDL
MODEL 5
REMARK VINA RESULT:     -21.9      4.373      6.573
REMARK  7 active torsions:
REMARK  status: ('A' for Active; 'I' for Inactive)
REMARK    1  A    between atoms: O_5  and  C_13 
REMARK    2  A    between atoms: O_5  and  C_14 
REMARK    3  A    between atoms: O_6  and  C_15 
REMARK    4  A    between atoms: O_6  and  C_22 
REMARK       I    between atoms: N_8  and  C_20 
REMARK    5  A    between atoms: N_8  and  C_21 
REMARK    6  A    between atoms: C_10  and  C_13 
REMARK    7  A    between atoms: C_17  and  C_20 
ROOT
ATOM      1 CL   UNL A   1     -52.561  46.985  13.064  1.00  0.00    -0.080 Cl
ATOM      2 CL   UNL A   1     -54.036  51.141   9.829  1.00  0.00    -0.080 Cl
ATOM      3  N   UNL A   1     -53.685  50.731  13.767  1.00  0.00    -0.270 NA
ATOM      4  C   UNL A   1     -53.312  49.123  11.531  1.00  0.00     0.081 A 
ATOM      5  C   UNL A   1     -53.080  48.604  12.790  1.00  0.00     0.080 A 
ATOM      6  C   UNL A   1     -53.729  50.432  11.368  1.00  0.00     0.080 A 
ATOM      7  C   UNL A   1     -53.280  49.445  13.873  1.00  0.00     0.142 A 
ATOM      8  C   UNL A   1     -53.900  51.192  12.514  1.00  0.00     0.142 A 
ENDROOT
BRANCH   4   9
ATOM      9  N   UNL A   1     -53.122  48.304  10.391  1.00  0.00    -0.320 N 
ATOM     10  C   UNL A   1     -54.086  47.799   9.508  1.00  0.00     0.256 C 
ATOM     11  O   UNL A   1     -55.308  48.001   9.595  1.00  0.00    -0.267 OA
ATOM     12  H   UNL A   1     -52.189  48.058  10.193  1.00  0.00     0.169 HD
BRANCH  10  13
ATOM     13  C   UNL A   1     -53.583  46.956   8.434  1.00  0.00     0.035 A 
ATOM     14  C   UNL A   1     -52.936  45.757   8.733  1.00  0.00     0.056 A 
ATOM     15  C   UNL A   1     -52.453  44.950   7.703  1.00  0.00     0.103 A 
ATOM     16  C   UNL A   1     -52.618  45.341   6.374  1.00  0.00     0.108 A 
ATOM     17  C   UNL A   1     -53.265  46.540   6.075  1.00  0.00     0.041 A 
ATOM     18  C   UNL A   1     -53.747  47.347   7.106  1.00  0.00     0.020 A 
BRANCH  15  19
ATOM     19  O   UNL A   1     -51.823  43.781   8.006  1.00  0.00    -0.348 OA
BRANCH  19  20
ATOM     20  C   UNL A   1     -52.643  42.627   8.173  1.00  0.00     0.180 C 
BRANCH  20  21
ATOM     21  C   UNL A   1     -52.072  41.492   7.393  1.00  0.00     0.010 A 
ATOM     22  C   UNL A   1     -50.618  41.514   7.037  1.00  0.00     0.007 A 
ATOM     23  C   UNL A   1     -51.126  40.550   8.068  1.00  0.00     0.007 A 
ENDBRANCH  20  21
ENDBRANCH  19  20
ENDBRANCH  15  19
BRANCH  16  24
ATOM     24  O   UNL A   1     -52.152  44.561   5.360  1.00  0.00    -0.287 OA
BRANCH  24  25
ATOM     25  C   UNL A   1     -52.205  45.099   4.044  1.00  0.00     0.505 C 
ATOM     26  F   UNL A   1     -51.156  44.586   3.349  1.00  0.00    -0.184 F 
ATOM     27  F   UNL A   1     -53.328  44.658   3.428  1.00  0.00    -0.184 F 
ENDBRANCH  24  25
ENDBRANCH  16  24
ENDBRANCH  10  13
ENDBRANCH   4   9
TORSDOF 7
ENDMDL
MODEL 6
REMARK VINA RESULT:     -21.8      4.365      6.575
REMARK  7 active torsions:
REMARK  status: ('A' for Active; 'I' for Inactive)
REMARK    1  A    between atoms: O_5  and  C_13 
REMARK    2  A    between atoms: O_5  and  C_14 
REMARK    3  A    between atoms: O_6  and  C_15 
REMARK    4  A    between atoms: O_6  and  C_22 
REMARK       I    between atoms: N_8  and  C_20 
REMARK    5  A    between atoms: N_8  and  C_21 
REMARK    6  A    between atoms: C_10  and  C_13 
REMARK    7  A    between atoms: C_17  and  C_20 
ROOT
ATOM      1 CL   UNL A   1     -54.027  51.178   9.838  1.00  0.00    -0.080 Cl
ATOM      2 CL   UNL A   1     -52.596  47.022  13.094  1.00  0.00    -0.080 Cl
ATOM      3  N   UNL A   1     -53.722  50.772  13.780  1.00  0.00    -0.270 NA
ATOM      4  C   UNL A   1     -53.326  49.161  11.550  1.00  0.00     0.081 A 
ATOM      5  C   UNL A   1     -53.738  50.469  11.381  1.00  0.00     0.080 A 
ATOM      6  C   UNL A   1     -53.108  48.643  12.813  1.00  0.00     0.080 A 
ATOM      7  C   UNL A   1     -53.920  51.232  12.524  1.00  0.00     0.142 A 
ATOM      8  C   UNL A   1     -53.319  49.486  13.892  1.00  0.00     0.142 A 
ENDROOT
BRANCH   4   9
ATOM      9  N   UNL A   1     -53.125  48.339  10.413  1.00  0.00    -0.320 N 
ATOM     10  C   UNL A   1     -54.083  47.820   9.531  1.00  0.00     0.256 C 
ATOM     11  O   UNL A   1     -55.308  48.009   9.616  1.00  0.00    -0.267 OA
ATOM     12  H   UNL A   1     -52.190  48.102  10.218  1.00  0.00     0.169 HD
BRANCH  10  13
ATOM     13  C   UNL A   1     -53.570  46.978   8.462  1.00  0.00     0.035 A 
ATOM     14  C   UNL A   1     -52.968  45.757   8.763  1.00  0.00     0.056 A 
ATOM     15  C   UNL A   1     -52.475  44.950   7.737  1.00  0.00     0.103 A 
ATOM     16  C   UNL A   1     -52.586  45.365   6.410  1.00  0.00     0.108 A 
ATOM     17  C   UNL A   1     -53.188  46.587   6.108  1.00  0.00     0.041 A 
ATOM     18  C   UNL A   1     -53.681  47.393   7.135  1.00  0.00     0.020 A 
BRANCH  15  19
ATOM     19  O   UNL A   1     -51.889  43.760   8.042  1.00  0.00    -0.348 OA
BRANCH  19  20
ATOM     20  C   UNL A   1     -52.753  42.643   8.240  1.00  0.00     0.180 C 
BRANCH  20  21
ATOM     21  C   UNL A   1     -52.212  41.460   7.514  1.00  0.00     0.010 A 
ATOM     22  C   UNL A   1     -50.756  41.422   7.168  1.00  0.00     0.007 A 
ATOM     23  C   UNL A   1     -51.299  40.519   8.236  1.00  0.00     0.007 A 
ENDBRANCH  20  21
ENDBRANCH  19  20
ENDBRANCH  15  19
BRANCH  16  24
ATOM     24  O   UNL A   1     -52.110  44.586   5.399  1.00  0.00    -0.287 OA
BRANCH  24  25
ATOM     25  C   UNL A   1     -52.158  45.123   4.082  1.00  0.00     0.505 C 
ATOM     26  F   UNL A   1     -51.225  44.471   3.340  1.00  0.00    -0.184 F 
ATOM     27  F   UNL A   1     -53.361  44.835   3.528  1.00  0.00    -0.184 F 
ENDBRANCH  24  25
ENDBRANCH  16  24
ENDBRANCH  10  13
ENDBRANCH   4   9
TORSDOF 7
ENDMDL
MODEL 7
REMARK VINA RESULT:     -21.4      4.425      6.741
REMARK  7 active torsions:
REMARK  status: ('A' for Active; 'I' for Inactive)
REMARK    1  A    between atoms: O_5  and  C_13 
REMARK    2  A    between atoms: O_5  and  C_14 
REMARK    3  A    between atoms: O_6  and  C_15 
REMARK    4  A    between atoms: O_6  and  C_22 
REMARK       I    between atoms: N_8  and  C_20 
REMARK    5  A    between atoms: N_8  and  C_21 
REMARK    6  A    between atoms: C_10  and  C_13 
REMARK    7  A    between atoms: C_17  and  C_20 
ROOT
ATOM      1 CL   UNL A   1     -51.796  43.470   6.113  1.00  0.00    -0.080 Cl
ATOM      2 CL   UNL A   1     -52.461  42.157  11.381  1.00  0.00    -0.080 Cl
ATOM      3  N   UNL A   1     -50.991  40.212   8.242  1.00  0.00    -0.270 NA
ATOM      4  C   UNL A   1     -52.087  42.719   8.728  1.00  0.00     0.081 A 
ATOM      5  C   UNL A   1     -51.672  42.393   7.451  1.00  0.00     0.080 A 
ATOM      6  C   UNL A   1     -51.965  41.815   9.767  1.00  0.00     0.080 A 
ATOM      7  C   UNL A   1     -51.133  41.130   7.260  1.00  0.00     0.142 A 
ATOM      8  C   UNL A   1     -51.412  40.579   9.473  1.00  0.00     0.142 A 
ENDROOT
BRANCH   4   9
ATOM      9  N   UNL A   1     -52.646  43.997   8.977  1.00  0.00    -0.320 N 
ATOM     10  C   UNL A   1     -53.992  44.342   9.156  1.00  0.00     0.256 C 
ATOM     11  O   UNL A   1     -54.943  43.543   9.123  1.00  0.00    -0.267 OA
ATOM     12  H   UNL A   1     -52.002  44.741   9.030  1.00  0.00     0.169 HD
BRANCH  10  13
ATOM     13  C   UNL A   1     -54.263  45.755   9.370  1.00  0.00     0.035 A 
ATOM     14  C   UNL A   1     -53.436  46.504  10.207  1.00  0.00     0.056 A 
ATOM     15  C   UNL A   1     -53.697  47.859  10.413  1.00  0.00     0.103 A 
ATOM     16  C   UNL A   1     -54.783  48.464   9.782  1.00  0.00     0.108 A 
ATOM     17  C   UNL A   1     -55.610  47.715   8.945  1.00  0.00     0.041 A 
ATOM     18  C   UNL A   1     -55.350  46.360   8.740  1.00  0.00     0.020 A 
BRANCH  15  19
ATOM     19  O   UNL A   1     -52.883  48.581  11.232  1.00  0.00    -0.348 OA
BRANCH  19  20
ATOM     20  C   UNL A   1     -52.891  48.242  12.617  1.00  0.00     0.180 C 
BRANCH  20  21
ATOM     21  C   UNL A   1     -53.720  49.227  13.367  1.00  0.00     0.010 A 
ATOM     22  C   UNL A   1     -53.073  50.065  14.426  1.00  0.00     0.007 A 
ATOM     23  C   UNL A   1     -53.503  50.688  13.131  1.00  0.00     0.007 A 
ENDBRANCH  20  21
ENDBRANCH  19  20
ENDBRANCH  15  19
BRANCH  16  24
ATOM     24  O   UNL A   1     -55.047  49.787   9.974  1.00  0.00    -0.287 OA
BRANCH  24  25
ATOM     25  C   UNL A   1     -54.335  50.719   9.170  1.00  0.00     0.505 C 
ATOM     26  F   UNL A   1     -53.856  51.688   9.993  1.00  0.00    -0.184 F 
ATOM     27  F   UNL A   1     -53.255  50.104   8.629  1.00  0.00    -0.184 F 
ENDBRANCH  24  25
ENDBRANCH  16  24
ENDBRANCH  10  13
ENDBRANCH   4   9
TORSDOF 7
ENDMDL
MODEL 8
REMARK VINA RESULT:     -21.4      4.424      6.738
REMARK  7 active torsions:
REMARK  status: ('A' for Active; 'I' for Inactive)
REMARK    1  A    between atoms: O_5  and  C_13 
REMARK    2  A    between atoms: O_5  and  C_14 
REMARK    3  A    between atoms: O_6  and  C_15 
REMARK    4  A    between atoms: O_6  and  C_22 
REMARK       I    between atoms: N_8  and  C_20 
REMARK    5  A    between atoms: N_8  and  C_21 
REMARK    6  A    between atoms: C_10  and  C_13 
REMARK    7  A    between atoms: C_17  and  C_20 
ROOT
ATOM      1 CL   UNL A   1     -52.339  42.148  11.792  1.00  0.00    -0.080 Cl
ATOM      2 CL   UNL A   1     -51.728  43.144   6.449  1.00  0.00    -0.080 Cl
ATOM      3  N   UNL A   1     -50.905  40.017   8.759  1.00  0.00    -0.270 NA
ATOM      4  C   UNL A   1     -51.992  42.551   9.107  1.00  0.00     0.081 A 
ATOM      5  C   UNL A   1     -51.860  41.710  10.197  1.00  0.00     0.080 A 
ATOM      6  C   UNL A   1     -51.591  42.148   7.847  1.00  0.00     0.080 A 
ATOM      7  C   UNL A   1     -51.312  40.458   9.971  1.00  0.00     0.142 A 
ATOM      8  C   UNL A   1     -51.056  40.876   7.726  1.00  0.00     0.142 A 
ENDROOT
BRANCH   4   9
ATOM      9  N   UNL A   1     -52.548  43.842   9.285  1.00  0.00    -0.320 N 
ATOM     10  C   UNL A   1     -53.898  44.207   9.376  1.00  0.00     0.256 C 
ATOM     11  O   UNL A   1     -54.855  43.418   9.312  1.00  0.00    -0.267 OA
ATOM     12  H   UNL A   1     -51.899  44.580   9.352  1.00  0.00     0.169 HD
BRANCH  10  13
ATOM     13  C   UNL A   1     -54.162  45.629   9.531  1.00  0.00     0.035 A 
ATOM     14  C   UNL A   1     -53.381  46.393  10.398  1.00  0.00     0.056 A 
ATOM     15  C   UNL A   1     -53.636  47.756  10.547  1.00  0.00     0.103 A 
ATOM     16  C   UNL A   1     -54.671  48.355   9.829  1.00  0.00     0.108 A 
ATOM     17  C   UNL A   1     -55.452  47.591   8.962  1.00  0.00     0.041 A 
ATOM     18  C   UNL A   1     -55.197  46.228   8.813  1.00  0.00     0.020 A 
BRANCH  15  19
ATOM     19  O   UNL A   1     -52.868  48.493  11.397  1.00  0.00    -0.348 OA
BRANCH  19  20
ATOM     20  C   UNL A   1     -52.920  48.150  12.780  1.00  0.00     0.180 C 
BRANCH  20  21
ATOM     21  C   UNL A   1     -53.718  49.170  13.517  1.00  0.00     0.010 A 
ATOM     22  C   UNL A   1     -53.010  50.145  14.405  1.00  0.00     0.007 A 
ATOM     23  C   UNL A   1     -53.613  50.606  13.112  1.00  0.00     0.007 A 
ENDBRANCH  20  21
ENDBRANCH  19  20
ENDBRANCH  15  19
BRANCH  16  24
ATOM     24  O   UNL A   1     -54.929  49.686   9.965  1.00  0.00    -0.287 OA
BRANCH  24  25
ATOM     25  C   UNL A   1     -54.232  50.578   9.104  1.00  0.00     0.505 C 
ATOM     26  F   UNL A   1     -53.641  51.521   9.882  1.00  0.00    -0.184 F 
ATOM     27  F   UNL A   1     -53.231  49.906   8.484  1.00  0.00    -0.184 F 
ENDBRANCH  24  25
ENDBRANCH  16  24
ENDBRANCH  10  13
ENDBRANCH   4   9
TORSDOF 7
ENDMDL
MODEL 9
REMARK VINA RESULT:     -21.2      4.204      7.453
REMARK  7 active torsions:
REMARK  status: ('A' for Active; 'I' for Inactive)
REMARK    1  A    between atoms: O_5  and  C_13 
REMARK    2  A    between atoms: O_5  and  C_14 
REMARK    3  A    between atoms: O_6  and  C_15 
REMARK    4  A    between atoms: O_6  and  C_22 
REMARK       I    between atoms: N_8  and  C_20 
REMARK    5  A    between atoms: N_8  and  C_21 
REMARK    6  A    between atoms: C_10  and  C_13 
REMARK    7  A    between atoms: C_17  and  C_20 
ROOT
ATOM      1 CL   UNL A   1     -51.630  42.778   9.110  1.00  0.00    -0.080 Cl
ATOM      2 CL   UNL A   1     -52.718  46.541   5.293  1.00  0.00    -0.080 Cl
ATOM      3  N   UNL A   1     -51.573  42.739   5.136  1.00  0.00    -0.270 NA
ATOM      4  C   UNL A   1     -52.152  44.590   7.127  1.00  0.00     0.081 A 
ATOM      5  C   UNL A   1     -51.771  43.308   7.478  1.00  0.00     0.080 A 
ATOM      6  C   UNL A   1     -52.249  44.963   5.799  1.00  0.00     0.080 A 
ATOM      7  C   UNL A   1     -51.492  42.423   6.449  1.00  0.00     0.142 A 
ATOM      8  C   UNL A   1     -51.950  44.004   4.845  1.00  0.00     0.142 A 
ENDROOT
BRANCH   4   9
ATOM      9  N   UNL A   1     -52.448  45.534   8.141  1.00  0.00    -0.320 N 
ATOM     10  C   UNL A   1     -53.684  46.112   8.462  1.00  0.00     0.256 C 
ATOM     11  O   UNL A   1     -54.755  45.874   7.879  1.00  0.00    -0.267 OA
ATOM     12  H   UNL A   1     -51.685  45.821   8.693  1.00  0.00     0.169 HD
BRANCH  10  13
ATOM     13  C   UNL A   1     -53.670  47.079   9.548  1.00  0.00     0.035 A 
ATOM     14  C   UNL A   1     -52.883  46.848  10.677  1.00  0.00     0.056 A 
ATOM     15  C   UNL A   1     -52.871  47.775  11.719  1.00  0.00     0.103 A 
ATOM     16  C   UNL A   1     -53.645  48.932  11.633  1.00  0.00     0.108 A 
ATOM     17  C   UNL A   1     -54.432  49.163  10.504  1.00  0.00     0.041 A 
ATOM     18  C   UNL A   1     -54.444  48.236   9.462  1.00  0.00     0.020 A 
BRANCH  15  19
ATOM     19  O   UNL A   1     -52.099  47.540  12.816  1.00  0.00    -0.348 OA
BRANCH  19  20
ATOM     20  C   UNL A   1     -52.542  46.523  13.714  1.00  0.00     0.180 C 
BRANCH  20  21
ATOM     21  C   UNL A   1     -52.539  47.053  15.107  1.00  0.00     0.010 A 
ATOM     22  C   UNL A   1     -51.570  48.134  15.472  1.00  0.00     0.007 A 
ATOM     23  C   UNL A   1     -53.033  48.443  15.357  1.00  0.00     0.007 A 
ENDBRANCH  20  21
ENDBRANCH  19  20
ENDBRANCH  15  19
BRANCH  16  24
ATOM     24  O   UNL A   1     -53.640  49.845  12.643  1.00  0.00    -0.287 OA
BRANCH  24  25
ATOM     25  C   UNL A   1     -53.939  51.195  12.306  1.00  0.00     0.505 C 
ATOM     26  F   UNL A   1     -53.191  51.993  13.112  1.00  0.00    -0.184 F 
ATOM     27  F   UNL A   1     -53.530  51.436  11.037  1.00  0.00    -0.184 F 
ENDBRANCH  24  25
ENDBRANCH  16  24
ENDBRANCH  10  13
ENDBRANCH   4   9
TORSDOF 7
ENDMDL
