MODEL 1
REMARK VINA RESULT:      -6.5      0.000      0.000
REMARK  7 active torsions:
REMARK  status: ('A' for Active; 'I' for Inactive)
REMARK    1  A    between atoms: O_1  and  C_12 
REMARK    2  A    between atoms: O_3  and  C_15 
REMARK    3  A    between atoms: C_5  and  C_6 
REMARK    4  A    between atoms: C_5  and  C_7 
REMARK    5  A    between atoms: C_6  and  C_8 
REMARK    6  A    between atoms: C_7  and  C_9 
REMARK    7  A    between atoms: C_9  and  C_14 
ROOT
HETATM    1  O   UNL     1       4.901  -6.191  52.027  1.00  0.00    -0.358 OA
HETATM    2  H   UNL     1       5.581  -5.591  51.791  1.00  0.00     0.217 HD
ENDROOT
BRANCH   1   3
HETATM    3  C   UNL     1       4.263  -6.061  53.224  1.00  0.00     0.099 A 
HETATM    4  C   UNL     1       3.658  -7.177  53.803  1.00  0.00     0.046 A 
HETATM    5  C   UNL     1       3.000  -7.056  55.027  1.00  0.00    -0.055 A 
HETATM    6  C   UNL     1       2.946  -5.820  55.672  1.00  0.00     0.010 A 
HETATM    7  C   UNL     1       3.552  -4.705  55.092  1.00  0.00     0.040 A 
HETATM    8  C   UNL     1       4.209  -4.826  53.868  1.00  0.00     0.098 A 
BRANCH   5   9
HETATM    9  C   UNL     1       2.345  -8.262  55.653  1.00  0.00     0.038 C 
BRANCH   9  10
HETATM   10  C   UNL     1       2.988  -9.595  55.254  1.00  0.00     0.005 C 
BRANCH  10  11
HETATM   11  C   UNL     1       3.161 -10.555  56.440  1.00  0.00     0.011 C 
BRANCH  11  12
HETATM   12  C   UNL     1       3.739  -9.859  57.673  1.00  0.00     0.113 C 
BRANCH  12  13
HETATM   13  C   UNL     1       5.228  -9.615  57.580  1.00  0.00     0.172 C 
HETATM   14  O   UNL     1       5.499  -8.342  57.188  1.00  0.00    -0.648 OA
HETATM   15  O   UNL     1       6.100 -10.433  57.838  1.00  0.00    -0.648 OA
ENDBRANCH  12  13
ENDBRANCH  11  12
ENDBRANCH  10  11
ENDBRANCH   9  10
ENDBRANCH   5   9
BRANCH   8  16
HETATM   16  O   UNL     1       4.796  -3.729  53.312  1.00  0.00    -0.358 OA
HETATM   17  H   UNL     1       5.200  -3.085  53.860  1.00  0.00     0.217 HD
ENDBRANCH   8  16
ENDBRANCH   1   3
TORSDOF 7
ENDMDL
MODEL 2
REMARK VINA RESULT:      -6.5      3.735      5.473
REMARK  7 active torsions:
REMARK  status: ('A' for Active; 'I' for Inactive)
REMARK    1  A    between atoms: O_1  and  C_12 
REMARK    2  A    between atoms: O_3  and  C_15 
REMARK    3  A    between atoms: C_5  and  C_6 
REMARK    4  A    between atoms: C_5  and  C_7 
REMARK    5  A    between atoms: C_6  and  C_8 
REMARK    6  A    between atoms: C_7  and  C_9 
REMARK    7  A    between atoms: C_9  and  C_14 
ROOT
HETATM    1  O   UNL     1       5.380  -9.547  58.482  1.00  0.00    -0.358 OA
HETATM    2  H   UNL     1       5.343 -10.329  58.997  1.00  0.00     0.217 HD
ENDROOT
BRANCH   1   3
HETATM    3  C   UNL     1       4.686  -9.467  57.312  1.00  0.00     0.099 A 
HETATM    4  C   UNL     1       3.654 -10.371  57.065  1.00  0.00     0.046 A 
HETATM    5  C   UNL     1       2.937 -10.302  55.871  1.00  0.00    -0.055 A 
HETATM    6  C   UNL     1       3.253  -9.327  54.923  1.00  0.00     0.010 A 
HETATM    7  C   UNL     1       4.285  -8.422  55.172  1.00  0.00     0.040 A 
HETATM    8  C   UNL     1       5.002  -8.493  56.366  1.00  0.00     0.098 A 
BRANCH   5   9
HETATM    9  C   UNL     1       1.821 -11.281  55.602  1.00  0.00     0.038 C 
BRANCH   9  10
HETATM   10  C   UNL     1       1.206 -11.154  54.204  1.00  0.00     0.005 C 
BRANCH  10  11
HETATM   11  C   UNL     1      -0.253 -11.627  54.147  1.00  0.00     0.011 C 
BRANCH  11  12
HETATM   12  C   UNL     1      -1.243 -10.500  54.440  1.00  0.00     0.113 C 
BRANCH  12  13
HETATM   13  C   UNL     1      -1.810 -10.550  55.841  1.00  0.00     0.172 C 
HETATM   14  O   UNL     1      -3.058 -11.088  55.853  1.00  0.00    -0.648 OA
HETATM   15  O   UNL     1      -1.234 -10.179  56.854  1.00  0.00    -0.648 OA
ENDBRANCH  12  13
ENDBRANCH  11  12
ENDBRANCH  10  11
ENDBRANCH   9  10
ENDBRANCH   5   9
BRANCH   8  16
HETATM   16  O   UNL     1       6.008  -7.604  56.597  1.00  0.00    -0.358 OA
HETATM   17  H   UNL     1       5.846  -6.836  57.109  1.00  0.00     0.217 HD
ENDBRANCH   8  16
ENDBRANCH   1   3
TORSDOF 7
ENDMDL
MODEL 3
REMARK VINA RESULT:      -6.5      3.417      5.331
REMARK  7 active torsions:
REMARK  status: ('A' for Active; 'I' for Inactive)
REMARK    1  A    between atoms: O_1  and  C_12 
REMARK    2  A    between atoms: O_3  and  C_15 
REMARK    3  A    between atoms: C_5  and  C_6 
REMARK    4  A    between atoms: C_5  and  C_7 
REMARK    5  A    between atoms: C_6  and  C_8 
REMARK    6  A    between atoms: C_7  and  C_9 
REMARK    7  A    between atoms: C_9  and  C_14 
ROOT
HETATM    1  O   UNL     1       6.025  -7.607  56.631  1.00  0.00    -0.358 OA
HETATM    2  H   UNL     1       6.896  -7.915  56.792  1.00  0.00     0.217 HD
ENDROOT
BRANCH   1   3
HETATM    3  C   UNL     1       5.016  -8.498  56.419  1.00  0.00     0.099 A 
HETATM    4  C   UNL     1       4.276  -8.426  55.239  1.00  0.00     0.046 A 
HETATM    5  C   UNL     1       3.239  -9.331  55.010  1.00  0.00    -0.055 A 
HETATM    6  C   UNL     1       2.942 -10.307  55.961  1.00  0.00     0.010 A 
HETATM    7  C   UNL     1       3.684 -10.380  57.141  1.00  0.00     0.040 A 
HETATM    8  C   UNL     1       4.720  -9.474  57.369  1.00  0.00     0.098 A 
BRANCH   5   9
HETATM    9  C   UNL     1       2.437  -9.252  53.735  1.00  0.00     0.038 C 
BRANCH   9  10
HETATM   10  C   UNL     1       1.504 -10.447  53.513  1.00  0.00     0.005 C 
BRANCH  10  11
HETATM   11  C   UNL     1       0.024 -10.097  53.721  1.00  0.00     0.011 C 
BRANCH  11  12
HETATM   12  C   UNL     1      -0.708 -11.139  54.567  1.00  0.00     0.113 C 
BRANCH  12  13
HETATM   13  C   UNL     1      -1.362 -10.556  55.800  1.00  0.00     0.172 C 
HETATM   14  O   UNL     1      -0.438 -10.082  56.676  1.00  0.00    -0.648 OA
HETATM   15  O   UNL     1      -2.567 -10.487  56.000  1.00  0.00    -0.648 OA
ENDBRANCH  12  13
ENDBRANCH  11  12
ENDBRANCH  10  11
ENDBRANCH   9  10
ENDBRANCH   5   9
BRANCH   8  16
HETATM   16  O   UNL     1       5.437  -9.554  58.525  1.00  0.00    -0.358 OA
HETATM   17  H   UNL     1       5.182 -10.160  59.193  1.00  0.00     0.217 HD
ENDBRANCH   8  16
ENDBRANCH   1   3
TORSDOF 7
ENDMDL
MODEL 4
REMARK VINA RESULT:      -6.5      3.617      4.550
REMARK  7 active torsions:
REMARK  status: ('A' for Active; 'I' for Inactive)
REMARK    1  A    between atoms: O_1  and  C_12 
REMARK    2  A    between atoms: O_3  and  C_15 
REMARK    3  A    between atoms: C_5  and  C_6 
REMARK    4  A    between atoms: C_5  and  C_7 
REMARK    5  A    between atoms: C_6  and  C_8 
REMARK    6  A    between atoms: C_7  and  C_9 
REMARK    7  A    between atoms: C_9  and  C_14 
ROOT
HETATM    1  O   UNL     1       6.282  -7.639  56.653  1.00  0.00    -0.358 OA
HETATM    2  H   UNL     1       6.885  -7.193  56.090  1.00  0.00     0.217 HD
ENDROOT
BRANCH   1   3
HETATM    3  C   UNL     1       4.984  -7.799  56.269  1.00  0.00     0.099 A 
HETATM    4  C   UNL     1       4.424  -9.076  56.265  1.00  0.00     0.046 A 
HETATM    5  C   UNL     1       3.097  -9.254  55.873  1.00  0.00    -0.055 A 
HETATM    6  C   UNL     1       2.331  -8.155  55.484  1.00  0.00     0.010 A 
HETATM    7  C   UNL     1       2.892  -6.877  55.490  1.00  0.00     0.040 A 
HETATM    8  C   UNL     1       4.219  -6.700  55.882  1.00  0.00     0.098 A 
BRANCH   5   9
HETATM    9  C   UNL     1       2.491 -10.635  55.867  1.00  0.00     0.038 C 
BRANCH   9  10
HETATM   10  C   UNL     1       1.647 -10.938  54.625  1.00  0.00     0.005 C 
BRANCH  10  11
HETATM   11  C   UNL     1       0.387 -11.755  54.941  1.00  0.00     0.011 C 
BRANCH  11  12
HETATM   12  C   UNL     1      -0.896 -10.947  54.746  1.00  0.00     0.113 C 
BRANCH  12  13
HETATM   13  C   UNL     1      -1.523 -10.495  56.045  1.00  0.00     0.172 C 
HETATM   14  O   UNL     1      -2.862 -10.729  56.059  1.00  0.00    -0.648 OA
HETATM   15  O   UNL     1      -0.924  -9.999  56.989  1.00  0.00    -0.648 OA
ENDBRANCH  12  13
ENDBRANCH  11  12
ENDBRANCH  10  11
ENDBRANCH   9  10
ENDBRANCH   5   9
BRANCH   8  16
HETATM   16  O   UNL     1       4.756  -5.448  55.882  1.00  0.00    -0.358 OA
HETATM   17  H   UNL     1       5.454  -5.238  56.471  1.00  0.00     0.217 HD
ENDBRANCH   8  16
ENDBRANCH   1   3
TORSDOF 7
ENDMDL
MODEL 5
REMARK VINA RESULT:      -6.2      2.707      3.092
REMARK  7 active torsions:
REMARK  status: ('A' for Active; 'I' for Inactive)
REMARK    1  A    between atoms: O_1  and  C_12 
REMARK    2  A    between atoms: O_3  and  C_15 
REMARK    3  A    between atoms: C_5  and  C_6 
REMARK    4  A    between atoms: C_5  and  C_7 
REMARK    5  A    between atoms: C_6  and  C_8 
REMARK    6  A    between atoms: C_7  and  C_9 
REMARK    7  A    between atoms: C_9  and  C_14 
ROOT
HETATM    1  O   UNL     1       5.557  -6.370  52.564  1.00  0.00    -0.358 OA
HETATM    2  H   UNL     1       6.450  -6.093  52.617  1.00  0.00     0.217 HD
ENDROOT
BRANCH   1   3
HETATM    3  C   UNL     1       4.704  -6.123  53.597  1.00  0.00     0.099 A 
HETATM    4  C   UNL     1       4.209  -7.190  54.347  1.00  0.00     0.046 A 
HETATM    5  C   UNL     1       3.333  -6.950  55.407  1.00  0.00    -0.055 A 
HETATM    6  C   UNL     1       2.952  -5.644  55.715  1.00  0.00     0.010 A 
HETATM    7  C   UNL     1       3.448  -4.577  54.965  1.00  0.00     0.040 A 
HETATM    8  C   UNL     1       4.323  -4.817  53.906  1.00  0.00     0.098 A 
BRANCH   5   9
HETATM    9  C   UNL     1       2.797  -8.104  56.217  1.00  0.00     0.038 C 
BRANCH   9  10
HETATM   10  C   UNL     1       3.569  -9.413  56.020  1.00  0.00     0.005 C 
BRANCH  10  11
HETATM   11  C   UNL     1       2.662 -10.651  56.030  1.00  0.00     0.011 C 
BRANCH  11  12
HETATM   12  C   UNL     1       1.823 -10.769  54.757  1.00  0.00     0.113 C 
BRANCH  12  13
HETATM   13  C   UNL     1       0.725 -11.804  54.858  1.00  0.00     0.172 C 
HETATM   14  O   UNL     1       0.089 -11.738  56.057  1.00  0.00    -0.648 OA
HETATM   15  O   UNL     1       0.414 -12.597  53.981  1.00  0.00    -0.648 OA
ENDBRANCH  12  13
ENDBRANCH  11  12
ENDBRANCH  10  11
ENDBRANCH   9  10
ENDBRANCH   5   9
BRANCH   8  16
HETATM   16  O   UNL     1       4.800  -3.767  53.180  1.00  0.00    -0.358 OA
HETATM   17  H   UNL     1       4.496  -2.899  53.358  1.00  0.00     0.217 HD
ENDBRANCH   8  16
ENDBRANCH   1   3
TORSDOF 7
ENDMDL
MODEL 6
REMARK VINA RESULT:      -6.0      2.784      5.632
REMARK  7 active torsions:
REMARK  status: ('A' for Active; 'I' for Inactive)
REMARK    1  A    between atoms: O_1  and  C_12 
REMARK    2  A    between atoms: O_3  and  C_15 
REMARK    3  A    between atoms: C_5  and  C_6 
REMARK    4  A    between atoms: C_5  and  C_7 
REMARK    5  A    between atoms: C_6  and  C_8 
REMARK    6  A    between atoms: C_7  and  C_9 
REMARK    7  A    between atoms: C_9  and  C_14 
ROOT
HETATM    1  O   UNL     1       0.990 -12.345  56.008  1.00  0.00    -0.358 OA
HETATM    2  H   UNL     1       1.098 -12.529  56.920  1.00  0.00     0.217 HD
ENDROOT
BRANCH   1   3
HETATM    3  C   UNL     1       1.664 -11.307  55.437  1.00  0.00     0.099 A 
HETATM    4  C   UNL     1       2.639 -10.635  56.175  1.00  0.00     0.046 A 
HETATM    5  C   UNL     1       3.335  -9.570  55.603  1.00  0.00    -0.055 A 
HETATM    6  C   UNL     1       3.056  -9.176  54.294  1.00  0.00     0.010 A 
HETATM    7  C   UNL     1       2.082  -9.849  53.556  1.00  0.00     0.040 A 
HETATM    8  C   UNL     1       1.386 -10.914  54.129  1.00  0.00     0.098 A 
BRANCH   5   9
HETATM    9  C   UNL     1       4.388  -8.842  56.402  1.00  0.00     0.038 C 
BRANCH   9  10
HETATM   10  C   UNL     1       4.882  -7.548  55.745  1.00  0.00     0.005 C 
BRANCH  10  11
HETATM   11  C   UNL     1       4.272  -6.288  56.372  1.00  0.00     0.011 C 
BRANCH  11  12
HETATM   12  C   UNL     1       3.061  -5.776  55.592  1.00  0.00     0.113 C 
BRANCH  12  13
HETATM   13  C   UNL     1       3.414  -5.241  54.223  1.00  0.00     0.172 C 
HETATM   14  O   UNL     1       2.714  -5.876  53.246  1.00  0.00    -0.648 OA
HETATM   15  O   UNL     1       4.208  -4.338  53.995  1.00  0.00    -0.648 OA
ENDBRANCH  12  13
ENDBRANCH  11  12
ENDBRANCH  10  11
ENDBRANCH   9  10
ENDBRANCH   5   9
BRANCH   8  16
HETATM   16  O   UNL     1       0.436 -11.563  53.399  1.00  0.00    -0.358 OA
HETATM   17  H   UNL     1       0.335 -12.491  53.481  1.00  0.00     0.217 HD
ENDBRANCH   8  16
ENDBRANCH   1   3
TORSDOF 7
ENDMDL
MODEL 7
REMARK VINA RESULT:      -6.0      3.553      5.362
REMARK  7 active torsions:
REMARK  status: ('A' for Active; 'I' for Inactive)
REMARK    1  A    between atoms: O_1  and  C_12 
REMARK    2  A    between atoms: O_3  and  C_15 
REMARK    3  A    between atoms: C_5  and  C_6 
REMARK    4  A    between atoms: C_5  and  C_7 
REMARK    5  A    between atoms: C_6  and  C_8 
REMARK    6  A    between atoms: C_7  and  C_9 
REMARK    7  A    between atoms: C_9  and  C_14 
ROOT
HETATM    1  O   UNL     1       3.628 -10.739  57.821  1.00  0.00    -0.358 OA
HETATM    2  H   UNL     1       4.326 -10.916  58.422  1.00  0.00     0.217 HD
ENDROOT
BRANCH   1   3
HETATM    3  C   UNL     1       3.829  -9.890  56.774  1.00  0.00     0.099 A 
HETATM    4  C   UNL     1       2.962  -9.933  55.682  1.00  0.00     0.046 A 
HETATM    5  C   UNL     1       3.158  -9.071  54.603  1.00  0.00    -0.055 A 
HETATM    6  C   UNL     1       4.221  -8.167  54.615  1.00  0.00     0.010 A 
HETATM    7  C   UNL     1       5.086  -8.124  55.709  1.00  0.00     0.040 A 
HETATM    8  C   UNL     1       4.890  -8.987  56.787  1.00  0.00     0.098 A 
BRANCH   5   9
HETATM    9  C   UNL     1       2.222  -9.118  53.421  1.00  0.00     0.038 C 
BRANCH   9  10
HETATM   10  C   UNL     1       1.401 -10.409  53.329  1.00  0.00     0.005 C 
BRANCH  10  11
HETATM   11  C   UNL     1      -0.112 -10.155  53.286  1.00  0.00     0.011 C 
BRANCH  11  12
HETATM   12  C   UNL     1      -0.903 -11.216  54.052  1.00  0.00     0.113 C 
BRANCH  12  13
HETATM   13  C   UNL     1      -1.269 -10.792  55.457  1.00  0.00     0.172 C 
HETATM   14  O   UNL     1      -0.260 -11.048  56.331  1.00  0.00    -0.648 OA
HETATM   15  O   UNL     1      -2.321 -10.265  55.789  1.00  0.00    -0.648 OA
ENDBRANCH  12  13
ENDBRANCH  11  12
ENDBRANCH  10  11
ENDBRANCH   9  10
ENDBRANCH   5   9
BRANCH   8  16
HETATM   16  O   UNL     1       5.743  -8.936  57.849  1.00  0.00    -0.358 OA
HETATM   17  H   UNL     1       5.446  -8.605  58.673  1.00  0.00     0.217 HD
ENDBRANCH   8  16
ENDBRANCH   1   3
TORSDOF 7
ENDMDL
MODEL 8
REMARK VINA RESULT:      -6.0      3.206      4.249
REMARK  7 active torsions:
REMARK  status: ('A' for Active; 'I' for Inactive)
REMARK    1  A    between atoms: O_1  and  C_12 
REMARK    2  A    between atoms: O_3  and  C_15 
REMARK    3  A    between atoms: C_5  and  C_6 
REMARK    4  A    between atoms: C_5  and  C_7 
REMARK    5  A    between atoms: C_6  and  C_8 
REMARK    6  A    between atoms: C_7  and  C_9 
REMARK    7  A    between atoms: C_9  and  C_14 
ROOT
HETATM    1  O   UNL     1       6.145  -6.603  53.925  1.00  0.00    -0.358 OA
HETATM    2  H   UNL     1       7.030  -6.896  53.826  1.00  0.00     0.217 HD
ENDROOT
BRANCH   1   3
HETATM    3  C   UNL     1       5.203  -7.445  54.436  1.00  0.00     0.099 A 
HETATM    4  C   UNL     1       4.051  -7.713  53.696  1.00  0.00     0.046 A 
HETATM    5  C   UNL     1       3.077  -8.571  54.209  1.00  0.00    -0.055 A 
HETATM    6  C   UNL     1       3.255  -9.159  55.461  1.00  0.00     0.010 A 
HETATM    7  C   UNL     1       4.408  -8.891  56.200  1.00  0.00     0.040 A 
HETATM    8  C   UNL     1       5.381  -8.033  55.687  1.00  0.00     0.098 A 
BRANCH   5   9
HETATM    9  C   UNL     1       1.831  -8.860  53.409  1.00  0.00     0.038 C 
BRANCH   9  10
HETATM   10  C   UNL     1       1.814 -10.251  52.767  1.00  0.00     0.005 C 
BRANCH  10  11
HETATM   11  C   UNL     1       0.866 -11.227  53.477  1.00  0.00     0.011 C 
BRANCH  11  12
HETATM   12  C   UNL     1      -0.245 -10.508  54.241  1.00  0.00     0.113 C 
BRANCH  12  13
HETATM   13  C   UNL     1      -0.310 -10.889  55.703  1.00  0.00     0.172 C 
HETATM   14  O   UNL     1       0.524 -11.924  55.984  1.00  0.00    -0.648 OA
HETATM   15  O   UNL     1      -0.999 -10.339  56.551  1.00  0.00    -0.648 OA
ENDBRANCH  12  13
ENDBRANCH  11  12
ENDBRANCH  10  11
ENDBRANCH   9  10
ENDBRANCH   5   9
BRANCH   8  16
HETATM   16  O   UNL     1       6.502  -7.778  56.419  1.00  0.00    -0.358 OA
HETATM   17  H   UNL     1       6.574  -8.104  57.294  1.00  0.00     0.217 HD
ENDBRANCH   8  16
ENDBRANCH   1   3
TORSDOF 7
ENDMDL
MODEL 9
REMARK VINA RESULT:      -5.9      1.272      1.928
REMARK  7 active torsions:
REMARK  status: ('A' for Active; 'I' for Inactive)
REMARK    1  A    between atoms: O_1  and  C_12 
REMARK    2  A    between atoms: O_3  and  C_15 
REMARK    3  A    between atoms: C_5  and  C_6 
REMARK    4  A    between atoms: C_5  and  C_7 
REMARK    5  A    between atoms: C_6  and  C_8 
REMARK    6  A    between atoms: C_7  and  C_9 
REMARK    7  A    between atoms: C_9  and  C_14 
ROOT
HETATM    1  O   UNL     1       5.172  -4.645  54.389  1.00  0.00    -0.358 OA
HETATM    2  H   UNL     1       5.838  -4.143  53.962  1.00  0.00     0.217 HD
ENDROOT
BRANCH   1   3
HETATM    3  C   UNL     1       4.473  -5.584  53.690  1.00  0.00     0.099 A 
HETATM    4  C   UNL     1       4.212  -6.821  54.279  1.00  0.00     0.046 A 
HETATM    5  C   UNL     1       3.500  -7.792  53.573  1.00  0.00    -0.055 A 
HETATM    6  C   UNL     1       3.050  -7.525  52.280  1.00  0.00     0.010 A 
HETATM    7  C   UNL     1       3.311  -6.287  51.693  1.00  0.00     0.040 A 
HETATM    8  C   UNL     1       4.023  -5.317  52.398  1.00  0.00     0.098 A 
BRANCH   5   9
HETATM    9  C   UNL     1       3.219  -9.131  54.209  1.00  0.00     0.038 C 
BRANCH   9  10
HETATM   10  C   UNL     1       2.077  -9.105  55.231  1.00  0.00     0.005 C 
BRANCH  10  11
HETATM   11  C   UNL     1       2.572  -9.137  56.683  1.00  0.00     0.011 C 
BRANCH  11  12
HETATM   12  C   UNL     1       3.625 -10.221  56.917  1.00  0.00     0.113 C 
BRANCH  12  13
HETATM   13  C   UNL     1       4.790  -9.752  57.758  1.00  0.00     0.172 C 
HETATM   14  O   UNL     1       5.392  -8.664  57.211  1.00  0.00    -0.648 OA
HETATM   15  O   UNL     1       5.154 -10.256  58.812  1.00  0.00    -0.648 OA
ENDBRANCH  12  13
ENDBRANCH  11  12
ENDBRANCH  10  11
ENDBRANCH   9  10
ENDBRANCH   5   9
BRANCH   8  16
HETATM   16  O   UNL     1       4.273  -4.111  51.814  1.00  0.00    -0.358 OA
HETATM   17  H   UNL     1       5.153  -3.864  51.609  1.00  0.00     0.217 HD
ENDBRANCH   8  16
ENDBRANCH   1   3
TORSDOF 7
ENDMDL
