MODEL 1
REMARK VINA RESULT:      -6.6      0.000      0.000
REMARK  7 active torsions:
REMARK  status: ('A' for Active; 'I' for Inactive)
REMARK    1  A    between atoms: O_1  and  C_12 
REMARK    2  A    between atoms: O_3  and  C_15 
REMARK    3  A    between atoms: C_5  and  C_6 
REMARK    4  A    between atoms: C_5  and  C_7 
REMARK    5  A    between atoms: C_6  and  C_8 
REMARK    6  A    between atoms: C_7  and  C_9 
REMARK    7  A    between atoms: C_9  and  C_14 
ROOT
HETATM    1  O   UNL     1       6.267  -7.682  56.591  1.00  0.00    -0.358 OA
HETATM    2  H   UNL     1       6.268  -6.859  56.142  1.00  0.00     0.217 HD
ENDROOT
BRANCH   1   3
HETATM    3  C   UNL     1       5.210  -8.531  56.455  1.00  0.00     0.099 A 
HETATM    4  C   UNL     1       4.368  -8.406  55.350  1.00  0.00     0.046 A 
HETATM    5  C   UNL     1       3.281  -9.268  55.201  1.00  0.00    -0.055 A 
HETATM    6  C   UNL     1       3.036 -10.254  56.156  1.00  0.00     0.010 A 
HETATM    7  C   UNL     1       3.880 -10.380  57.261  1.00  0.00     0.040 A 
HETATM    8  C   UNL     1       4.966  -9.517  57.410  1.00  0.00     0.098 A 
BRANCH   5   9
HETATM    9  C   UNL     1       2.370  -9.131  54.007  1.00  0.00     0.038 C 
BRANCH   9  10
HETATM   10  C   UNL     1       1.534 -10.383  53.717  1.00  0.00     0.005 C 
BRANCH  10  11
HETATM   11  C   UNL     1       0.030 -10.091  53.628  1.00  0.00     0.011 C 
BRANCH  11  12
HETATM   12  C   UNL     1      -0.804 -11.072  54.453  1.00  0.00     0.113 C 
BRANCH  12  13
HETATM   13  C   UNL     1      -1.195 -10.531  55.810  1.00  0.00     0.172 C 
HETATM   14  O   UNL     1      -2.537 -10.608  56.007  1.00  0.00    -0.648 OA
HETATM   15  O   UNL     1      -0.421 -10.093  56.651  1.00  0.00    -0.648 OA
ENDBRANCH  12  13
ENDBRANCH  11  12
ENDBRANCH  10  11
ENDBRANCH   9  10
ENDBRANCH   5   9
BRANCH   8  16
HETATM   16  O   UNL     1       5.782  -9.649  58.493  1.00  0.00    -0.358 OA
HETATM   17  H   UNL     1       5.464 -10.063  59.271  1.00  0.00     0.217 HD
ENDBRANCH   8  16
ENDBRANCH   1   3
TORSDOF 7
ENDMDL
MODEL 2
REMARK VINA RESULT:      -6.6      3.345      5.283
REMARK  7 active torsions:
REMARK  status: ('A' for Active; 'I' for Inactive)
REMARK    1  A    between atoms: O_1  and  C_12 
REMARK    2  A    between atoms: O_3  and  C_15 
REMARK    3  A    between atoms: C_5  and  C_6 
REMARK    4  A    between atoms: C_5  and  C_7 
REMARK    5  A    between atoms: C_6  and  C_8 
REMARK    6  A    between atoms: C_7  and  C_9 
REMARK    7  A    between atoms: C_9  and  C_14 
ROOT
HETATM    1  O   UNL     1       4.827  -6.205  52.029  1.00  0.00    -0.358 OA
HETATM    2  H   UNL     1       5.009  -7.057  51.684  1.00  0.00     0.217 HD
ENDROOT
BRANCH   1   3
HETATM    3  C   UNL     1       4.218  -6.076  53.242  1.00  0.00     0.099 A 
HETATM    4  C   UNL     1       3.583  -7.181  53.810  1.00  0.00     0.046 A 
HETATM    5  C   UNL     1       2.955  -7.062  55.050  1.00  0.00    -0.055 A 
HETATM    6  C   UNL     1       2.960  -5.839  55.720  1.00  0.00     0.010 A 
HETATM    7  C   UNL     1       3.597  -4.735  55.152  1.00  0.00     0.040 A 
HETATM    8  C   UNL     1       4.225  -4.854  53.912  1.00  0.00     0.098 A 
BRANCH   5   9
HETATM    9  C   UNL     1       2.267  -8.256  55.663  1.00  0.00     0.038 C 
BRANCH   9  10
HETATM   10  C   UNL     1       2.812  -9.604  55.179  1.00  0.00     0.005 C 
BRANCH  10  11
HETATM   11  C   UNL     1       3.160 -10.557  56.330  1.00  0.00     0.011 C 
BRANCH  11  12
HETATM   12  C   UNL     1       3.662  -9.816  57.569  1.00  0.00     0.113 C 
BRANCH  12  13
HETATM   13  C   UNL     1       5.161  -9.613  57.579  1.00  0.00     0.172 C 
HETATM   14  O   UNL     1       5.499  -8.390  57.093  1.00  0.00    -0.648 OA
HETATM   15  O   UNL     1       5.985 -10.419  57.987  1.00  0.00    -0.648 OA
ENDBRANCH  12  13
ENDBRANCH  11  12
ENDBRANCH  10  11
ENDBRANCH   9  10
ENDBRANCH   5   9
BRANCH   8  16
HETATM   16  O   UNL     1       4.842  -3.768  53.366  1.00  0.00    -0.358 OA
HETATM   17  H   UNL     1       5.777  -3.721  53.350  1.00  0.00     0.217 HD
ENDBRANCH   8  16
ENDBRANCH   1   3
TORSDOF 7
ENDMDL
MODEL 3
REMARK VINA RESULT:      -6.5      0.613      1.813
REMARK  7 active torsions:
REMARK  status: ('A' for Active; 'I' for Inactive)
REMARK    1  A    between atoms: O_1  and  C_12 
REMARK    2  A    between atoms: O_3  and  C_15 
REMARK    3  A    between atoms: C_5  and  C_6 
REMARK    4  A    between atoms: C_5  and  C_7 
REMARK    5  A    between atoms: C_6  and  C_8 
REMARK    6  A    between atoms: C_7  and  C_9 
REMARK    7  A    between atoms: C_9  and  C_14 
ROOT
HETATM    1  O   UNL     1       5.579  -9.598  58.487  1.00  0.00    -0.358 OA
HETATM    2  H   UNL     1       5.212 -10.029  59.234  1.00  0.00     0.217 HD
ENDROOT
BRANCH   1   3
HETATM    3  C   UNL     1       4.854  -9.490  57.338  1.00  0.00     0.099 A 
HETATM    4  C   UNL     1       3.776 -10.350  57.125  1.00  0.00     0.046 A 
HETATM    5  C   UNL     1       3.027 -10.251  55.952  1.00  0.00    -0.055 A 
HETATM    6  C   UNL     1       3.357  -9.293  54.992  1.00  0.00     0.010 A 
HETATM    7  C   UNL     1       4.435  -8.434  55.207  1.00  0.00     0.040 A 
HETATM    8  C   UNL     1       5.183  -8.533  56.380  1.00  0.00     0.098 A 
BRANCH   5   9
HETATM    9  C   UNL     1       1.862 -11.181  55.721  1.00  0.00     0.038 C 
BRANCH   9  10
HETATM   10  C   UNL     1       1.269 -11.094  54.311  1.00  0.00     0.005 C 
BRANCH  10  11
HETATM   11  C   UNL     1       0.089 -10.118  54.216  1.00  0.00     0.011 C 
BRANCH  11  12
HETATM   12  C   UNL     1      -1.256 -10.804  54.457  1.00  0.00     0.113 C 
BRANCH  12  13
HETATM   13  C   UNL     1      -1.785 -10.609  55.861  1.00  0.00     0.172 C 
HETATM   14  O   UNL     1      -3.046 -11.096  55.988  1.00  0.00    -0.648 OA
HETATM   15  O   UNL     1      -1.170 -10.099  56.787  1.00  0.00    -0.648 OA
ENDBRANCH  12  13
ENDBRANCH  11  12
ENDBRANCH  10  11
ENDBRANCH   9  10
ENDBRANCH   5   9
BRANCH   8  16
HETATM   16  O   UNL     1       6.234  -7.689  56.577  1.00  0.00    -0.358 OA
HETATM   17  H   UNL     1       6.089  -6.764  56.626  1.00  0.00     0.217 HD
ENDBRANCH   8  16
ENDBRANCH   1   3
TORSDOF 7
ENDMDL
MODEL 4
REMARK VINA RESULT:      -6.3      3.147      4.441
REMARK  7 active torsions:
REMARK  status: ('A' for Active; 'I' for Inactive)
REMARK    1  A    between atoms: O_1  and  C_12 
REMARK    2  A    between atoms: O_3  and  C_15 
REMARK    3  A    between atoms: C_5  and  C_6 
REMARK    4  A    between atoms: C_5  and  C_7 
REMARK    5  A    between atoms: C_6  and  C_8 
REMARK    6  A    between atoms: C_7  and  C_9 
REMARK    7  A    between atoms: C_9  and  C_14 
ROOT
HETATM    1  O   UNL     1       4.916  -6.186  52.056  1.00  0.00    -0.358 OA
HETATM    2  H   UNL     1       5.841  -6.065  51.968  1.00  0.00     0.217 HD
ENDROOT
BRANCH   1   3
HETATM    3  C   UNL     1       4.307  -5.939  53.250  1.00  0.00     0.099 A 
HETATM    4  C   UNL     1       3.854  -7.008  54.022  1.00  0.00     0.046 A 
HETATM    5  C   UNL     1       3.227  -6.769  55.245  1.00  0.00    -0.055 A 
HETATM    6  C   UNL     1       3.052  -5.460  55.695  1.00  0.00     0.010 A 
HETATM    7  C   UNL     1       3.506  -4.391  54.922  1.00  0.00     0.040 A 
HETATM    8  C   UNL     1       4.132  -4.631  53.699  1.00  0.00     0.098 A 
BRANCH   5   9
HETATM    9  C   UNL     1       2.736  -7.925  56.080  1.00  0.00     0.038 C 
BRANCH   9  10
HETATM   10  C   UNL     1       3.640  -9.162  56.021  1.00  0.00     0.005 C 
BRANCH  10  11
HETATM   11  C   UNL     1       2.852 -10.479  55.999  1.00  0.00     0.011 C 
BRANCH  11  12
HETATM   12  C   UNL     1       1.858 -10.544  54.840  1.00  0.00     0.113 C 
BRANCH  12  13
HETATM   13  C   UNL     1       0.973 -11.770  54.878  1.00  0.00     0.172 C 
HETATM   14  O   UNL     1       0.526 -12.020  56.137  1.00  0.00    -0.648 OA
HETATM   15  O   UNL     1       0.665 -12.455  53.913  1.00  0.00    -0.648 OA
ENDBRANCH  12  13
ENDBRANCH  11  12
ENDBRANCH  10  11
ENDBRANCH   9  10
ENDBRANCH   5   9
BRANCH   8  16
HETATM   16  O   UNL     1       4.571  -3.578  52.952  1.00  0.00    -0.358 OA
HETATM   17  H   UNL     1       4.018  -3.211  52.291  1.00  0.00     0.217 HD
ENDBRANCH   8  16
ENDBRANCH   1   3
TORSDOF 7
ENDMDL
MODEL 5
REMARK VINA RESULT:      -6.2      2.822      3.987
REMARK  7 active torsions:
REMARK  status: ('A' for Active; 'I' for Inactive)
REMARK    1  A    between atoms: O_1  and  C_12 
REMARK    2  A    between atoms: O_3  and  C_15 
REMARK    3  A    between atoms: C_5  and  C_6 
REMARK    4  A    between atoms: C_5  and  C_7 
REMARK    5  A    between atoms: C_6  and  C_8 
REMARK    6  A    between atoms: C_7  and  C_9 
REMARK    7  A    between atoms: C_9  and  C_14 
ROOT
HETATM    1  O   UNL     1       4.932  -6.192  52.090  1.00  0.00    -0.358 OA
HETATM    2  H   UNL     1       5.864  -6.137  52.014  1.00  0.00     0.217 HD
ENDROOT
BRANCH   1   3
HETATM    3  C   UNL     1       4.337  -6.044  53.307  1.00  0.00     0.099 A 
HETATM    4  C   UNL     1       3.899  -7.174  53.997  1.00  0.00     0.046 A 
HETATM    5  C   UNL     1       3.286  -7.035  55.244  1.00  0.00    -0.055 A 
HETATM    6  C   UNL     1       3.112  -5.767  55.798  1.00  0.00     0.010 A 
HETATM    7  C   UNL     1       3.552  -4.637  55.107  1.00  0.00     0.040 A 
HETATM    8  C   UNL     1       4.164  -4.776  53.862  1.00  0.00     0.098 A 
BRANCH   5   9
HETATM    9  C   UNL     1       2.810  -8.257  55.990  1.00  0.00     0.038 C 
BRANCH   9  10
HETATM   10  C   UNL     1       3.239  -9.581  55.350  1.00  0.00     0.005 C 
BRANCH  10  11
HETATM   11  C   UNL     1       2.318 -10.752  55.720  1.00  0.00     0.011 C 
BRANCH  11  12
HETATM   12  C   UNL     1       1.122 -10.874  54.774  1.00  0.00     0.113 C 
BRANCH  12  13
HETATM   13  C   UNL     1      -0.203 -10.592  55.445  1.00  0.00     0.172 C 
HETATM   14  O   UNL     1      -1.247 -10.901  54.632  1.00  0.00    -0.648 OA
HETATM   15  O   UNL     1      -0.347 -10.160  56.581  1.00  0.00    -0.648 OA
ENDBRANCH  12  13
ENDBRANCH  11  12
ENDBRANCH  10  11
ENDBRANCH   9  10
ENDBRANCH   5   9
BRANCH   8  16
HETATM   16  O   UNL     1       4.589  -3.666  53.196  1.00  0.00    -0.358 OA
HETATM   17  H   UNL     1       4.970  -2.953  53.670  1.00  0.00     0.217 HD
ENDBRANCH   8  16
ENDBRANCH   1   3
TORSDOF 7
ENDMDL
MODEL 6
REMARK VINA RESULT:      -6.2      3.349      5.255
REMARK  7 active torsions:
REMARK  status: ('A' for Active; 'I' for Inactive)
REMARK    1  A    between atoms: O_1  and  C_12 
REMARK    2  A    between atoms: O_3  and  C_15 
REMARK    3  A    between atoms: C_5  and  C_6 
REMARK    4  A    between atoms: C_5  and  C_7 
REMARK    5  A    between atoms: C_6  and  C_8 
REMARK    6  A    between atoms: C_7  and  C_9 
REMARK    7  A    between atoms: C_9  and  C_14 
ROOT
HETATM    1  O   UNL     1       4.834  -4.260  55.362  1.00  0.00    -0.358 OA
HETATM    2  H   UNL     1       5.008  -4.373  56.276  1.00  0.00     0.217 HD
ENDROOT
BRANCH   1   3
HETATM    3  C   UNL     1       4.127  -5.207  54.682  1.00  0.00     0.099 A 
HETATM    4  C   UNL     1       3.553  -6.267  55.382  1.00  0.00     0.046 A 
HETATM    5  C   UNL     1       2.829  -7.244  54.697  1.00  0.00    -0.055 A 
HETATM    6  C   UNL     1       2.682  -7.161  53.312  1.00  0.00     0.010 A 
HETATM    7  C   UNL     1       3.256  -6.099  52.613  1.00  0.00     0.040 A 
HETATM    8  C   UNL     1       3.980  -5.123  53.298  1.00  0.00     0.098 A 
BRANCH   5   9
HETATM    9  C   UNL     1       2.208  -8.392  55.454  1.00  0.00     0.038 C 
BRANCH   9  10
HETATM   10  C   UNL     1       2.815  -9.758  55.117  1.00  0.00     0.005 C 
BRANCH  10  11
HETATM   11  C   UNL     1       3.092 -10.614  56.361  1.00  0.00     0.011 C 
BRANCH  11  12
HETATM   12  C   UNL     1       3.618  -9.785  57.533  1.00  0.00     0.113 C 
BRANCH  12  13
HETATM   13  C   UNL     1       5.127  -9.701  57.578  1.00  0.00     0.172 C 
HETATM   14  O   UNL     1       5.571  -8.495  57.137  1.00  0.00    -0.648 OA
HETATM   15  O   UNL     1       5.876 -10.583  57.974  1.00  0.00    -0.648 OA
ENDBRANCH  12  13
ENDBRANCH  11  12
ENDBRANCH  10  11
ENDBRANCH   9  10
ENDBRANCH   5   9
BRANCH   8  16
HETATM   16  O   UNL     1       4.537  -4.091  52.604  1.00  0.00    -0.358 OA
HETATM   17  H   UNL     1       4.108  -3.753  51.843  1.00  0.00     0.217 HD
ENDBRANCH   8  16
ENDBRANCH   1   3
TORSDOF 7
ENDMDL
MODEL 7
REMARK VINA RESULT:      -6.2      1.038      2.005
REMARK  7 active torsions:
REMARK  status: ('A' for Active; 'I' for Inactive)
REMARK    1  A    between atoms: O_1  and  C_12 
REMARK    2  A    between atoms: O_3  and  C_15 
REMARK    3  A    between atoms: C_5  and  C_6 
REMARK    4  A    between atoms: C_5  and  C_7 
REMARK    5  A    between atoms: C_6  and  C_8 
REMARK    6  A    between atoms: C_7  and  C_9 
REMARK    7  A    between atoms: C_9  and  C_14 
ROOT
HETATM    1  O   UNL     1       5.822  -9.028  57.624  1.00  0.00    -0.358 OA
HETATM    2  H   UNL     1       5.736  -9.895  57.968  1.00  0.00     0.217 HD
ENDROOT
BRANCH   1   3
HETATM    3  C   UNL     1       5.248  -8.708  56.430  1.00  0.00     0.099 A 
HETATM    4  C   UNL     1       3.908  -9.026  56.207  1.00  0.00     0.046 A 
HETATM    5  C   UNL     1       3.310  -8.706  54.988  1.00  0.00    -0.055 A 
HETATM    6  C   UNL     1       4.051  -8.070  53.992  1.00  0.00     0.010 A 
HETATM    7  C   UNL     1       5.391  -7.752  54.216  1.00  0.00     0.040 A 
HETATM    8  C   UNL     1       5.989  -8.072  55.435  1.00  0.00     0.098 A 
BRANCH   5   9
HETATM    9  C   UNL     1       1.861  -9.050  54.746  1.00  0.00     0.038 C 
BRANCH   9  10
HETATM   10  C   UNL     1       1.645 -10.447  54.154  1.00  0.00     0.005 C 
BRANCH  10  11
HETATM   11  C   UNL     1       0.645 -11.290  54.958  1.00  0.00     0.011 C 
BRANCH  11  12
HETATM   12  C   UNL     1      -0.799 -10.834  54.752  1.00  0.00     0.113 C 
BRANCH  12  13
HETATM   13  C   UNL     1      -1.505 -10.481  56.042  1.00  0.00     0.172 C 
HETATM   14  O   UNL     1      -2.829 -10.781  55.981  1.00  0.00    -0.648 OA
HETATM   15  O   UNL     1      -0.974 -10.005  57.036  1.00  0.00    -0.648 OA
ENDBRANCH  12  13
ENDBRANCH  11  12
ENDBRANCH  10  11
ENDBRANCH   9  10
ENDBRANCH   5   9
BRANCH   8  16
HETATM   16  O   UNL     1       7.299  -7.758  55.641  1.00  0.00    -0.358 OA
HETATM   17  H   UNL     1       7.755  -7.223  55.022  1.00  0.00     0.217 HD
ENDBRANCH   8  16
ENDBRANCH   1   3
TORSDOF 7
ENDMDL
MODEL 8
REMARK VINA RESULT:      -6.0      1.751      2.572
REMARK  7 active torsions:
REMARK  status: ('A' for Active; 'I' for Inactive)
REMARK    1  A    between atoms: O_1  and  C_12 
REMARK    2  A    between atoms: O_3  and  C_15 
REMARK    3  A    between atoms: C_5  and  C_6 
REMARK    4  A    between atoms: C_5  and  C_7 
REMARK    5  A    between atoms: C_6  and  C_8 
REMARK    6  A    between atoms: C_7  and  C_9 
REMARK    7  A    between atoms: C_9  and  C_14 
ROOT
HETATM    1  O   UNL     1       5.437  -9.596  58.493  1.00  0.00    -0.358 OA
HETATM    2  H   UNL     1       5.852  -8.853  58.885  1.00  0.00     0.217 HD
ENDROOT
BRANCH   1   3
HETATM    3  C   UNL     1       4.749  -9.455  57.324  1.00  0.00     0.099 A 
HETATM    4  C   UNL     1       3.663 -10.290  57.064  1.00  0.00     0.046 A 
HETATM    5  C   UNL     1       2.952 -10.157  55.871  1.00  0.00    -0.055 A 
HETATM    6  C   UNL     1       3.328  -9.189  54.938  1.00  0.00     0.010 A 
HETATM    7  C   UNL     1       4.414  -8.354  55.201  1.00  0.00     0.040 A 
HETATM    8  C   UNL     1       5.125  -8.487  56.393  1.00  0.00     0.098 A 
BRANCH   5   9
HETATM    9  C   UNL     1       1.778 -11.060  55.588  1.00  0.00     0.038 C 
BRANCH   9  10
HETATM   10  C   UNL     1       1.211 -10.918  54.171  1.00  0.00     0.005 C 
BRANCH  10  11
HETATM   11  C   UNL     1      -0.082 -10.093  54.123  1.00  0.00     0.011 C 
BRANCH  11  12
HETATM   12  C   UNL     1      -1.334 -10.964  54.228  1.00  0.00     0.113 C 
BRANCH  12  13
HETATM   13  C   UNL     1      -1.644 -11.722  52.956  1.00  0.00     0.172 C 
HETATM   14  O   UNL     1      -1.551 -10.918  51.864  1.00  0.00    -0.648 OA
HETATM   15  O   UNL     1      -1.924 -12.910  52.887  1.00  0.00    -0.648 OA
ENDBRANCH  12  13
ENDBRANCH  11  12
ENDBRANCH  10  11
ENDBRANCH   9  10
ENDBRANCH   5   9
BRANCH   8  16
HETATM   16  O   UNL     1       6.184  -7.666  56.638  1.00  0.00    -0.358 OA
HETATM   17  H   UNL     1       6.173  -6.782  56.326  1.00  0.00     0.217 HD
ENDBRANCH   8  16
ENDBRANCH   1   3
TORSDOF 7
ENDMDL
MODEL 9
REMARK VINA RESULT:      -5.9      2.995      4.139
REMARK  7 active torsions:
REMARK  status: ('A' for Active; 'I' for Inactive)
REMARK    1  A    between atoms: O_1  and  C_12 
REMARK    2  A    between atoms: O_3  and  C_15 
REMARK    3  A    between atoms: C_5  and  C_6 
REMARK    4  A    between atoms: C_5  and  C_7 
REMARK    5  A    between atoms: C_6  and  C_8 
REMARK    6  A    between atoms: C_7  and  C_9 
REMARK    7  A    between atoms: C_9  and  C_14 
ROOT
HETATM    1  O   UNL     1       6.326  -7.722  56.533  1.00  0.00    -0.358 OA
HETATM    2  H   UNL     1       6.219  -6.849  56.856  1.00  0.00     0.217 HD
ENDROOT
BRANCH   1   3
HETATM    3  C   UNL     1       5.244  -8.542  56.413  1.00  0.00     0.099 A 
HETATM    4  C   UNL     1       4.409  -8.416  55.303  1.00  0.00     0.046 A 
HETATM    5  C   UNL     1       3.297  -9.248  55.169  1.00  0.00    -0.055 A 
HETATM    6  C   UNL     1       3.019 -10.204  56.147  1.00  0.00     0.010 A 
HETATM    7  C   UNL     1       3.855 -10.329  57.257  1.00  0.00     0.040 A 
HETATM    8  C   UNL     1       4.967  -9.497  57.390  1.00  0.00     0.098 A 
BRANCH   5   9
HETATM    9  C   UNL     1       2.393  -9.111  53.969  1.00  0.00     0.038 C 
BRANCH   9  10
HETATM   10  C   UNL     1       3.114  -8.651  52.698  1.00  0.00     0.005 C 
BRANCH  10  11
HETATM   11  C   UNL     1       2.706  -7.239  52.256  1.00  0.00     0.011 C 
BRANCH  11  12
HETATM   12  C   UNL     1       3.875  -6.254  52.301  1.00  0.00     0.113 C 
BRANCH  12  13
HETATM   13  C   UNL     1       3.737  -5.210  53.386  1.00  0.00     0.172 C 
HETATM   14  O   UNL     1       2.794  -5.564  54.299  1.00  0.00    -0.648 OA
HETATM   15  O   UNL     1       4.391  -4.179  53.469  1.00  0.00    -0.648 OA
ENDBRANCH  12  13
ENDBRANCH  11  12
ENDBRANCH  10  11
ENDBRANCH   9  10
ENDBRANCH   5   9
BRANCH   8  16
HETATM   16  O   UNL     1       5.775  -9.628  58.478  1.00  0.00    -0.358 OA
HETATM   17  H   UNL     1       5.468 -10.084  59.237  1.00  0.00     0.217 HD
ENDBRANCH   8  16
ENDBRANCH   1   3
TORSDOF 7
ENDMDL
